title = 'U_plus_two-layer_mixing_model.dat'
variables = 'U+/U+max' 'y+/R+' 'y+' 'U+'  'normalized_Reynolds_Shear_Stress' 
zone i=10620 f=point
0.000000e+00	 0.000000e+00	 0.000000e+00	 0.000000e+00	 0.000000e+00	
8.403829e-03	 1.881291e-04	 2.000000e-01	 1.983113e-01	 4.175214e-07	
1.680364e-02	 3.762581e-04	 4.000000e-01	 3.965277e-01	 6.626683e-06	
2.519769e-02	 5.643872e-04	 6.000000e-01	 5.946083e-01	 3.327722e-05	
3.358413e-02	 7.525162e-04	 8.000000e-01	 7.925092e-01	 1.043175e-04	
4.196081e-02	 9.406453e-04	 1.000000e+00	 9.901798e-01	 2.525786e-04	
5.032549e-02	 1.128774e-03	 1.200000e+00	 1.187567e+00	 5.193165e-04	
5.867558e-02	 1.316903e-03	 1.400000e+00	 1.384610e+00	 9.536801e-04	
6.700816e-02	 1.505032e-03	 1.600000e+00	 1.581240e+00	 1.612064e-03	
7.531998e-02	 1.693162e-03	 1.800000e+00	 1.777381e+00	 2.557308e-03	
8.360742e-02	 1.881291e-03	 2.000000e+00	 1.972945e+00	 3.857695e-03	
8.778276e-02	 2.069420e-03	 2.200000e+00	 2.071474e+00	 5.585727e-03	
9.195177e-02	 2.163484e-03	 2.300000e+00	 2.169853e+00	 6.633560e-03	
9.611390e-02	 2.257549e-03	 2.400000e+00	 2.268070e+00	 7.816639e-03	
1.002686e-01	 2.351613e-03	 2.500000e+00	 2.366110e+00	 9.144509e-03	
1.044152e-01	 2.445678e-03	 2.600000e+00	 2.463960e+00	 1.062666e-02	
1.085530e-01	 2.539742e-03	 2.700000e+00	 2.561605e+00	 1.227244e-02	
1.126815e-01	 2.633807e-03	 2.800000e+00	 2.659028e+00	 1.409101e-02	
1.168000e-01	 2.727871e-03	 2.900000e+00	 2.756214e+00	 1.609126e-02	
1.209076e-01	 2.821936e-03	 3.000000e+00	 2.853145e+00	 1.828174e-02	
1.250037e-01	 2.916000e-03	 3.100000e+00	 2.949805e+00	 2.067057e-02	
1.290876e-01	 3.010065e-03	 3.200000e+00	 3.046175e+00	 2.326540e-02	
1.331584e-01	 3.104129e-03	 3.300000e+00	 3.142237e+00	 2.607329e-02	
1.372155e-01	 3.198194e-03	 3.400000e+00	 3.237973e+00	 2.910069e-02	
1.412578e-01	 3.292258e-03	 3.500000e+00	 3.333364e+00	 3.235334e-02	
1.452848e-01	 3.386323e-03	 3.600000e+00	 3.428391e+00	 3.583624e-02	
1.492955e-01	 3.480388e-03	 3.700000e+00	 3.523035e+00	 3.955355e-02	
1.532891e-01	 3.574452e-03	 3.800000e+00	 3.617275e+00	 4.350859e-02	
1.572649e-01	 3.668517e-03	 3.900000e+00	 3.711094e+00	 4.770377e-02	
1.612219e-01	 3.762581e-03	 4.000000e+00	 3.804471e+00	 5.214057e-02	
1.651594e-01	 3.856646e-03	 4.100000e+00	 3.897387e+00	 5.681951e-02	
1.690765e-01	 3.950710e-03	 4.200000e+00	 3.989823e+00	 6.174016e-02	
1.729726e-01	 4.044775e-03	 4.300000e+00	 4.081760e+00	 6.690111e-02	
1.768467e-01	 4.138839e-03	 4.400000e+00	 4.173180e+00	 7.229997e-02	
1.806981e-01	 4.232904e-03	 4.500000e+00	 4.264064e+00	 7.793345e-02	
1.845260e-01	 4.326968e-03	 4.600000e+00	 4.354395e+00	 8.379729e-02	
1.883298e-01	 4.421033e-03	 4.700000e+00	 4.444156e+00	 8.988640e-02	
1.921087e-01	 4.515097e-03	 4.800000e+00	 4.533329e+00	 9.619482e-02	
1.958620e-01	 4.609162e-03	 4.900000e+00	 4.621899e+00	 1.027158e-01	
1.995891e-01	 4.703226e-03	 5.000000e+00	 4.709850e+00	 1.094419e-01	
2.032893e-01	 4.797291e-03	 5.100000e+00	 4.797167e+00	 1.163651e-01	
2.069621e-01	 4.891355e-03	 5.200000e+00	 4.883836e+00	 1.234765e-01	
2.106069e-01	 4.985420e-03	 5.300000e+00	 4.969844e+00	 1.307670e-01	
2.142231e-01	 5.079485e-03	 5.400000e+00	 5.055178e+00	 1.382269e-01	
2.178102e-01	 5.173549e-03	 5.500000e+00	 5.139826e+00	 1.458461e-01	
2.213678e-01	 5.267614e-03	 5.600000e+00	 5.223778e+00	 1.536144e-01	
2.248955e-01	 5.361678e-03	 5.700000e+00	 5.307023e+00	 1.615210e-01	
2.283928e-01	 5.455743e-03	 5.800000e+00	 5.389552e+00	 1.695553e-01	
2.318594e-01	 5.549807e-03	 5.900000e+00	 5.471356e+00	 1.777065e-01	
2.352950e-01	 5.643872e-03	 6.000000e+00	 5.552427e+00	 1.859636e-01	
2.386992e-01	 5.737936e-03	 6.100000e+00	 5.632760e+00	 1.943160e-01	
2.420719e-01	 5.832001e-03	 6.200000e+00	 5.712347e+00	 2.027529e-01	
2.454127e-01	 5.926065e-03	 6.300000e+00	 5.791183e+00	 2.112638e-01	
2.487216e-01	 6.020130e-03	 6.400000e+00	 5.869265e+00	 2.198382e-01	
2.519983e-01	 6.114194e-03	 6.500000e+00	 5.946587e+00	 2.284660e-01	
2.552427e-01	 6.208259e-03	 6.600000e+00	 6.023148e+00	 2.371374e-01	
2.584547e-01	 6.302323e-03	 6.700000e+00	 6.098945e+00	 2.458428e-01	
2.616343e-01	 6.396388e-03	 6.800000e+00	 6.173976e+00	 2.545729e-01	
2.647815e-01	 6.490452e-03	 6.900000e+00	 6.248241e+00	 2.633188e-01	
2.678961e-01	 6.584517e-03	 7.000000e+00	 6.321740e+00	 2.720720e-01	
2.709783e-01	 6.678582e-03	 7.100000e+00	 6.394472e+00	 2.808245e-01	
2.740280e-01	 6.772646e-03	 7.200000e+00	 6.466439e+00	 2.895683e-01	
2.770454e-01	 6.866711e-03	 7.300000e+00	 6.537642e+00	 2.982961e-01	
2.800305e-01	 6.960775e-03	 7.400000e+00	 6.608084e+00	 3.070011e-01	
2.829835e-01	 7.054840e-03	 7.500000e+00	 6.677768e+00	 3.156765e-01	
2.859044e-01	 7.148904e-03	 7.600000e+00	 6.746695e+00	 3.243163e-01	
2.887935e-01	 7.242969e-03	 7.700000e+00	 6.814870e+00	 3.329146e-01	
2.916508e-01	 7.337033e-03	 7.800000e+00	 6.882297e+00	 3.414661e-01	
2.944766e-01	 7.431098e-03	 7.900000e+00	 6.948980e+00	 3.499657e-01	
2.972711e-01	 7.525162e-03	 8.000000e+00	 7.014923e+00	 3.584088e-01	
3.000345e-01	 7.619227e-03	 8.100000e+00	 7.080133e+00	 3.667911e-01	
3.027670e-01	 7.713291e-03	 8.200000e+00	 7.144614e+00	 3.751086e-01	
3.054689e-01	 7.807356e-03	 8.300000e+00	 7.208372e+00	 3.833577e-01	
3.081403e-01	 7.901420e-03	 8.400000e+00	 7.271412e+00	 3.915352e-01	
3.107817e-01	 7.995485e-03	 8.500000e+00	 7.333742e+00	 3.996379e-01	
3.133932e-01	 8.089549e-03	 8.600000e+00	 7.395367e+00	 4.076632e-01	
3.159751e-01	 8.183614e-03	 8.700000e+00	 7.456295e+00	 4.156087e-01	
3.185277e-01	 8.277678e-03	 8.800000e+00	 7.516531e+00	 4.234721e-01	
3.210513e-01	 8.371743e-03	 8.900000e+00	 7.576083e+00	 4.312516e-01	
3.235463e-01	 8.465808e-03	 9.000000e+00	 7.634958e+00	 4.389455e-01	
3.260128e-01	 8.559872e-03	 9.100000e+00	 7.693163e+00	 4.465523e-01	
3.284513e-01	 8.653937e-03	 9.200000e+00	 7.750706e+00	 4.540708e-01	
3.308621e-01	 8.748001e-03	 9.300000e+00	 7.807593e+00	 4.614999e-01	
3.332453e-01	 8.842066e-03	 9.400000e+00	 7.863833e+00	 4.688387e-01	
3.356015e-01	 8.936130e-03	 9.500000e+00	 7.919434e+00	 4.760865e-01	
3.379309e-01	 9.030195e-03	 9.600000e+00	 7.974401e+00	 4.832429e-01	
3.402338e-01	 9.124259e-03	 9.700000e+00	 8.028745e+00	 4.903073e-01	
3.425105e-01	 9.218324e-03	 9.800000e+00	 8.082471e+00	 4.972797e-01	
3.447615e-01	 9.312388e-03	 9.900000e+00	 8.135588e+00	 5.041597e-01	
3.469869e-01	 9.406453e-03	 1.000000e+01	 8.188103e+00	 5.109475e-01	
3.491872e-01	 9.500517e-03	 1.010000e+01	 8.240024e+00	 5.176432e-01	
3.513626e-01	 9.594582e-03	 1.020000e+01	 8.291360e+00	 5.242469e-01	
3.535135e-01	 9.688646e-03	 1.030000e+01	 8.342117e+00	 5.307590e-01	
3.556403e-01	 9.782711e-03	 1.040000e+01	 8.392304e+00	 5.371799e-01	
3.577432e-01	 9.876775e-03	 1.050000e+01	 8.441927e+00	 5.435101e-01	
3.598225e-01	 9.970840e-03	 1.060000e+01	 8.490995e+00	 5.497500e-01	
3.618787e-01	 1.006490e-02	 1.070000e+01	 8.539515e+00	 5.559004e-01	
3.639119e-01	 1.015897e-02	 1.080000e+01	 8.587495e+00	 5.619619e-01	
3.659226e-01	 1.025303e-02	 1.090000e+01	 8.634941e+00	 5.679352e-01	
3.679109e-01	 1.034710e-02	 1.100000e+01	 8.681863e+00	 5.738211e-01	
3.698774e-01	 1.044116e-02	 1.110000e+01	 8.728266e+00	 5.796204e-01	
3.718221e-01	 1.053523e-02	 1.120000e+01	 8.774158e+00	 5.853341e-01	
3.737456e-01	 1.062929e-02	 1.130000e+01	 8.819547e+00	 5.909629e-01	
3.756480e-01	 1.072336e-02	 1.140000e+01	 8.864439e+00	 5.965078e-01	
3.775296e-01	 1.081742e-02	 1.150000e+01	 8.908842e+00	 6.019698e-01	
3.793909e-01	 1.091149e-02	 1.160000e+01	 8.952763e+00	 6.073498e-01	
3.812319e-01	 1.100555e-02	 1.170000e+01	 8.996208e+00	 6.126489e-01	
3.830531e-01	 1.109961e-02	 1.180000e+01	 9.039184e+00	 6.178680e-01	
3.848548e-01	 1.119368e-02	 1.190000e+01	 9.081698e+00	 6.230082e-01	
3.866371e-01	 1.128774e-02	 1.200000e+01	 9.123758e+00	 6.280706e-01	
3.884004e-01	 1.138181e-02	 1.210000e+01	 9.165368e+00	 6.330561e-01	
3.901450e-01	 1.147587e-02	 1.220000e+01	 9.206536e+00	 6.379659e-01	
3.918711e-01	 1.156994e-02	 1.230000e+01	 9.247269e+00	 6.428009e-01	
3.935791e-01	 1.166400e-02	 1.240000e+01	 9.287572e+00	 6.475624e-01	
3.952691e-01	 1.175807e-02	 1.250000e+01	 9.327452e+00	 6.522513e-01	
3.969414e-01	 1.185213e-02	 1.260000e+01	 9.366916e+00	 6.568686e-01	
3.985963e-01	 1.194620e-02	 1.270000e+01	 9.405968e+00	 6.614156e-01	
4.002341e-01	 1.204026e-02	 1.280000e+01	 9.444615e+00	 6.658932e-01	
4.018549e-01	 1.213432e-02	 1.290000e+01	 9.482863e+00	 6.703025e-01	
4.034591e-01	 1.222839e-02	 1.300000e+01	 9.520718e+00	 6.746446e-01	
4.050468e-01	 1.232245e-02	 1.310000e+01	 9.558186e+00	 6.789205e-01	
4.066184e-01	 1.241652e-02	 1.320000e+01	 9.595272e+00	 6.831312e-01	
4.081741e-01	 1.251058e-02	 1.330000e+01	 9.631981e+00	 6.872778e-01	
4.097140e-01	 1.260465e-02	 1.340000e+01	 9.668320e+00	 6.913613e-01	
4.112384e-01	 1.269871e-02	 1.350000e+01	 9.704293e+00	 6.953827e-01	
4.127476e-01	 1.279278e-02	 1.360000e+01	 9.739906e+00	 6.993430e-01	
4.142417e-01	 1.288684e-02	 1.370000e+01	 9.775164e+00	 7.032433e-01	
4.157210e-01	 1.298090e-02	 1.380000e+01	 9.810072e+00	 7.070845e-01	
4.171857e-01	 1.307497e-02	 1.390000e+01	 9.844636e+00	 7.108675e-01	
4.186360e-01	 1.316903e-02	 1.400000e+01	 9.878860e+00	 7.145934e-01	
4.200722e-01	 1.326310e-02	 1.410000e+01	 9.912749e+00	 7.182631e-01	
4.214943e-01	 1.335716e-02	 1.420000e+01	 9.946308e+00	 7.218775e-01	
4.229026e-01	 1.345123e-02	 1.430000e+01	 9.979542e+00	 7.254376e-01	
4.242974e-01	 1.354529e-02	 1.440000e+01	 1.001246e+01	 7.289442e-01	
4.256788e-01	 1.363936e-02	 1.450000e+01	 1.004505e+01	 7.323983e-01	
4.270469e-01	 1.373342e-02	 1.460000e+01	 1.007734e+01	 7.358007e-01	
4.284021e-01	 1.382749e-02	 1.470000e+01	 1.010932e+01	 7.391524e-01	
4.297444e-01	 1.392155e-02	 1.480000e+01	 1.014099e+01	 7.424541e-01	
4.310741e-01	 1.401561e-02	 1.490000e+01	 1.017237e+01	 7.457068e-01	
4.323913e-01	 1.410968e-02	 1.500000e+01	 1.020345e+01	 7.489113e-01	
4.336962e-01	 1.420374e-02	 1.510000e+01	 1.023425e+01	 7.520683e-01	
4.349891e-01	 1.429781e-02	 1.520000e+01	 1.026475e+01	 7.551787e-01	
4.362699e-01	 1.439187e-02	 1.530000e+01	 1.029498e+01	 7.582433e-01	
4.375390e-01	 1.448594e-02	 1.540000e+01	 1.032493e+01	 7.612629e-01	
4.387965e-01	 1.458000e-02	 1.550000e+01	 1.035460e+01	 7.642382e-01	
4.400425e-01	 1.467407e-02	 1.560000e+01	 1.038400e+01	 7.671699e-01	
4.412772e-01	 1.476813e-02	 1.570000e+01	 1.041314e+01	 7.700590e-01	
4.425008e-01	 1.486220e-02	 1.580000e+01	 1.044201e+01	 7.729060e-01	
4.437134e-01	 1.495626e-02	 1.590000e+01	 1.047063e+01	 7.757116e-01	
4.449151e-01	 1.505032e-02	 1.600000e+01	 1.049899e+01	 7.784767e-01	
4.461062e-01	 1.514439e-02	 1.610000e+01	 1.052709e+01	 7.812018e-01	
4.472868e-01	 1.523845e-02	 1.620000e+01	 1.055495e+01	 7.838877e-01	
4.484569e-01	 1.533252e-02	 1.630000e+01	 1.058257e+01	 7.865350e-01	
4.496168e-01	 1.542658e-02	 1.640000e+01	 1.060994e+01	 7.891444e-01	
4.507666e-01	 1.552065e-02	 1.650000e+01	 1.063707e+01	 7.917165e-01	
4.519064e-01	 1.561471e-02	 1.660000e+01	 1.066397e+01	 7.942520e-01	
4.530364e-01	 1.570878e-02	 1.670000e+01	 1.069063e+01	 7.967514e-01	
4.541567e-01	 1.580284e-02	 1.680000e+01	 1.071707e+01	 7.992155e-01	
4.552673e-01	 1.589691e-02	 1.690000e+01	 1.074328e+01	 8.016447e-01	
4.563686e-01	 1.599097e-02	 1.700000e+01	 1.076926e+01	 8.040397e-01	
4.574605e-01	 1.608503e-02	 1.710000e+01	 1.079503e+01	 8.064010e-01	
4.585432e-01	 1.617910e-02	 1.720000e+01	 1.082058e+01	 8.087293e-01	
4.596168e-01	 1.627316e-02	 1.730000e+01	 1.084591e+01	 8.110251e-01	
4.606815e-01	 1.636723e-02	 1.740000e+01	 1.087104e+01	 8.132889e-01	
4.617374e-01	 1.646129e-02	 1.750000e+01	 1.089595e+01	 8.155212e-01	
4.627845e-01	 1.655536e-02	 1.760000e+01	 1.092066e+01	 8.177226e-01	
4.638230e-01	 1.664942e-02	 1.770000e+01	 1.094517e+01	 8.198936e-01	
4.648530e-01	 1.674349e-02	 1.780000e+01	 1.096947e+01	 8.220347e-01	
4.658746e-01	 1.683755e-02	 1.790000e+01	 1.099358e+01	 8.241465e-01	
4.668879e-01	 1.693162e-02	 1.800000e+01	 1.101749e+01	 8.262293e-01	
4.678931e-01	 1.702568e-02	 1.810000e+01	 1.104121e+01	 8.282837e-01	
4.688902e-01	 1.711974e-02	 1.820000e+01	 1.106474e+01	 8.303101e-01	
4.698793e-01	 1.721381e-02	 1.830000e+01	 1.108808e+01	 8.323090e-01	
4.708605e-01	 1.730787e-02	 1.840000e+01	 1.111124e+01	 8.342809e-01	
4.718340e-01	 1.740194e-02	 1.850000e+01	 1.113421e+01	 8.362262e-01	
4.727999e-01	 1.749600e-02	 1.860000e+01	 1.115700e+01	 8.381453e-01	
4.737581e-01	 1.759007e-02	 1.870000e+01	 1.117962e+01	 8.400387e-01	
4.747089e-01	 1.768413e-02	 1.880000e+01	 1.120205e+01	 8.419067e-01	
4.756523e-01	 1.777820e-02	 1.890000e+01	 1.122432e+01	 8.437498e-01	
4.765885e-01	 1.787226e-02	 1.900000e+01	 1.124641e+01	 8.455685e-01	
4.775174e-01	 1.796632e-02	 1.910000e+01	 1.126833e+01	 8.473630e-01	
4.784392e-01	 1.806039e-02	 1.920000e+01	 1.129008e+01	 8.491338e-01	
4.793540e-01	 1.815445e-02	 1.930000e+01	 1.131167e+01	 8.508812e-01	
4.802619e-01	 1.824852e-02	 1.940000e+01	 1.133309e+01	 8.526057e-01	
4.811629e-01	 1.834258e-02	 1.950000e+01	 1.135435e+01	 8.543076e-01	
4.820572e-01	 1.843665e-02	 1.960000e+01	 1.137545e+01	 8.559873e-01	
4.829447e-01	 1.853071e-02	 1.970000e+01	 1.139640e+01	 8.576451e-01	
4.838257e-01	 1.862478e-02	 1.980000e+01	 1.141719e+01	 8.592813e-01	
4.847002e-01	 1.871884e-02	 1.990000e+01	 1.143782e+01	 8.608964e-01	
4.855682e-01	 1.881291e-02	 2.000000e+01	 1.145831e+01	 8.624906e-01	
4.864298e-01	 1.890697e-02	 2.010000e+01	 1.147864e+01	 8.640642e-01	
4.872852e-01	 1.900103e-02	 2.020000e+01	 1.149882e+01	 8.656177e-01	
4.881343e-01	 1.909510e-02	 2.030000e+01	 1.151886e+01	 8.671512e-01	
4.889773e-01	 1.918916e-02	 2.040000e+01	 1.153875e+01	 8.686652e-01	
4.898142e-01	 1.928323e-02	 2.050000e+01	 1.155850e+01	 8.701599e-01	
4.906452e-01	 1.937729e-02	 2.060000e+01	 1.157811e+01	 8.716357e-01	
4.914702e-01	 1.947136e-02	 2.070000e+01	 1.159758e+01	 8.730927e-01	
4.922893e-01	 1.956542e-02	 2.080000e+01	 1.161691e+01	 8.745314e-01	
4.931027e-01	 1.965949e-02	 2.090000e+01	 1.163610e+01	 8.759519e-01	
4.939104e-01	 1.975355e-02	 2.100000e+01	 1.165516e+01	 8.773546e-01	
4.947124e-01	 1.984762e-02	 2.110000e+01	 1.167409e+01	 8.787398e-01	
4.955088e-01	 1.994168e-02	 2.120000e+01	 1.169288e+01	 8.801076e-01	
4.962997e-01	 2.003574e-02	 2.130000e+01	 1.171154e+01	 8.814585e-01	
4.970851e-01	 2.012981e-02	 2.140000e+01	 1.173008e+01	 8.827925e-01	
4.978651e-01	 2.022387e-02	 2.150000e+01	 1.174849e+01	 8.841101e-01	
4.986398e-01	 2.031794e-02	 2.160000e+01	 1.176677e+01	 8.854113e-01	
4.994092e-01	 2.041200e-02	 2.170000e+01	 1.178492e+01	 8.866966e-01	
5.001734e-01	 2.050607e-02	 2.180000e+01	 1.180296e+01	 8.879661e-01	
5.009324e-01	 2.060013e-02	 2.190000e+01	 1.182087e+01	 8.892200e-01	
5.016864e-01	 2.069420e-02	 2.200000e+01	 1.183866e+01	 8.904586e-01	
5.024352e-01	 2.078826e-02	 2.210000e+01	 1.185633e+01	 8.916821e-01	
5.031792e-01	 2.088233e-02	 2.220000e+01	 1.187389e+01	 8.928908e-01	
5.039181e-01	 2.097639e-02	 2.230000e+01	 1.189132e+01	 8.940848e-01	
5.046522e-01	 2.107045e-02	 2.240000e+01	 1.190865e+01	 8.952644e-01	
5.053815e-01	 2.116452e-02	 2.250000e+01	 1.192586e+01	 8.964297e-01	
5.061060e-01	 2.125858e-02	 2.260000e+01	 1.194295e+01	 8.975811e-01	
5.068258e-01	 2.135265e-02	 2.270000e+01	 1.195994e+01	 8.987187e-01	
5.075409e-01	 2.144671e-02	 2.280000e+01	 1.197681e+01	 8.998426e-01	
5.082514e-01	 2.154078e-02	 2.290000e+01	 1.199358e+01	 9.009531e-01	
5.089573e-01	 2.163484e-02	 2.300000e+01	 1.201024e+01	 9.020505e-01	
5.096587e-01	 2.172891e-02	 2.310000e+01	 1.202679e+01	 9.031348e-01	
5.103557e-01	 2.182297e-02	 2.320000e+01	 1.204324e+01	 9.042063e-01	
5.110482e-01	 2.191704e-02	 2.330000e+01	 1.205958e+01	 9.052651e-01	
5.117364e-01	 2.201110e-02	 2.340000e+01	 1.207582e+01	 9.063114e-01	
5.124202e-01	 2.210516e-02	 2.350000e+01	 1.209195e+01	 9.073455e-01	
5.130998e-01	 2.219923e-02	 2.360000e+01	 1.210799e+01	 9.083674e-01	
5.137751e-01	 2.229329e-02	 2.370000e+01	 1.212393e+01	 9.093774e-01	
5.144462e-01	 2.238736e-02	 2.380000e+01	 1.213976e+01	 9.103757e-01	
5.151132e-01	 2.248142e-02	 2.390000e+01	 1.215550e+01	 9.113623e-01	
5.157760e-01	 2.257549e-02	 2.400000e+01	 1.217114e+01	 9.123374e-01	
5.164348e-01	 2.266955e-02	 2.410000e+01	 1.218669e+01	 9.133013e-01	
5.170896e-01	 2.276362e-02	 2.420000e+01	 1.220214e+01	 9.142540e-01	
5.177405e-01	 2.285768e-02	 2.430000e+01	 1.221750e+01	 9.151958e-01	
5.183873e-01	 2.295174e-02	 2.440000e+01	 1.223276e+01	 9.161267e-01	
5.190303e-01	 2.304581e-02	 2.450000e+01	 1.224794e+01	 9.170470e-01	
5.196694e-01	 2.313987e-02	 2.460000e+01	 1.226302e+01	 9.179567e-01	
5.203048e-01	 2.323394e-02	 2.470000e+01	 1.227801e+01	 9.188560e-01	
5.209363e-01	 2.332800e-02	 2.480000e+01	 1.229291e+01	 9.197451e-01	
5.215641e-01	 2.342207e-02	 2.490000e+01	 1.230773e+01	 9.206241e-01	
5.221882e-01	 2.351613e-02	 2.500000e+01	 1.232246e+01	 9.214932e-01	
5.228086e-01	 2.361020e-02	 2.510000e+01	 1.233710e+01	 9.223524e-01	
5.234254e-01	 2.370426e-02	 2.520000e+01	 1.235165e+01	 9.232019e-01	
5.240386e-01	 2.379833e-02	 2.530000e+01	 1.236612e+01	 9.240418e-01	
5.246483e-01	 2.389239e-02	 2.540000e+01	 1.238051e+01	 9.248723e-01	
5.252544e-01	 2.398645e-02	 2.550000e+01	 1.239481e+01	 9.256935e-01	
5.258571e-01	 2.408052e-02	 2.560000e+01	 1.240903e+01	 9.265055e-01	
5.264563e-01	 2.417458e-02	 2.570000e+01	 1.242317e+01	 9.273085e-01	
5.270521e-01	 2.426865e-02	 2.580000e+01	 1.243723e+01	 9.281025e-01	
5.276445e-01	 2.436271e-02	 2.590000e+01	 1.245121e+01	 9.288876e-01	
5.282335e-01	 2.445678e-02	 2.600000e+01	 1.246511e+01	 9.296641e-01	
5.288192e-01	 2.455084e-02	 2.610000e+01	 1.247893e+01	 9.304319e-01	
5.294017e-01	 2.464491e-02	 2.620000e+01	 1.249268e+01	 9.311913e-01	
5.299809e-01	 2.473897e-02	 2.630000e+01	 1.250635e+01	 9.319423e-01	
5.305568e-01	 2.483304e-02	 2.640000e+01	 1.251994e+01	 9.326851e-01	
5.311296e-01	 2.492710e-02	 2.650000e+01	 1.253345e+01	 9.334197e-01	
5.316992e-01	 2.502116e-02	 2.660000e+01	 1.254689e+01	 9.341462e-01	
5.322657e-01	 2.511523e-02	 2.670000e+01	 1.256026e+01	 9.348648e-01	
5.328291e-01	 2.520929e-02	 2.680000e+01	 1.257356e+01	 9.355756e-01	
5.333894e-01	 2.530336e-02	 2.690000e+01	 1.258678e+01	 9.362786e-01	
5.339467e-01	 2.539742e-02	 2.700000e+01	 1.259993e+01	 9.369740e-01	
5.345009e-01	 2.549149e-02	 2.710000e+01	 1.261301e+01	 9.376618e-01	
5.350522e-01	 2.558555e-02	 2.720000e+01	 1.262602e+01	 9.383422e-01	
5.356005e-01	 2.567962e-02	 2.730000e+01	 1.263896e+01	 9.390152e-01	
5.361459e-01	 2.577368e-02	 2.740000e+01	 1.265183e+01	 9.396810e-01	
5.366884e-01	 2.586775e-02	 2.750000e+01	 1.266463e+01	 9.403396e-01	
5.372280e-01	 2.596181e-02	 2.760000e+01	 1.267736e+01	 9.409911e-01	
5.377647e-01	 2.605587e-02	 2.770000e+01	 1.269003e+01	 9.416356e-01	
5.382987e-01	 2.614994e-02	 2.780000e+01	 1.270263e+01	 9.422732e-01	
5.388298e-01	 2.624400e-02	 2.790000e+01	 1.271516e+01	 9.429040e-01	
5.393581e-01	 2.633807e-02	 2.800000e+01	 1.272763e+01	 9.435281e-01	
5.398838e-01	 2.643213e-02	 2.810000e+01	 1.274003e+01	 9.441455e-01	
5.404066e-01	 2.652620e-02	 2.820000e+01	 1.275237e+01	 9.447563e-01	
5.409268e-01	 2.662026e-02	 2.830000e+01	 1.276465e+01	 9.453607e-01	
5.414444e-01	 2.671433e-02	 2.840000e+01	 1.277686e+01	 9.459586e-01	
5.419592e-01	 2.680839e-02	 2.850000e+01	 1.278901e+01	 9.465503e-01	
5.424715e-01	 2.690246e-02	 2.860000e+01	 1.280110e+01	 9.471356e-01	
5.429811e-01	 2.699652e-02	 2.870000e+01	 1.281312e+01	 9.477148e-01	
5.434882e-01	 2.709058e-02	 2.880000e+01	 1.282509e+01	 9.482879e-01	
5.439927e-01	 2.718465e-02	 2.890000e+01	 1.283699e+01	 9.488550e-01	
5.444947e-01	 2.727871e-02	 2.900000e+01	 1.284884e+01	 9.494161e-01	
5.449941e-01	 2.737278e-02	 2.910000e+01	 1.286062e+01	 9.499714e-01	
5.454911e-01	 2.746684e-02	 2.920000e+01	 1.287235e+01	 9.505208e-01	
5.459856e-01	 2.756091e-02	 2.930000e+01	 1.288402e+01	 9.510645e-01	
5.464777e-01	 2.765497e-02	 2.940000e+01	 1.289563e+01	 9.516025e-01	
5.469673e-01	 2.774904e-02	 2.950000e+01	 1.290719e+01	 9.521349e-01	
5.474546e-01	 2.784310e-02	 2.960000e+01	 1.291868e+01	 9.526617e-01	
5.479394e-01	 2.793716e-02	 2.970000e+01	 1.293013e+01	 9.531831e-01	
5.484219e-01	 2.803123e-02	 2.980000e+01	 1.294151e+01	 9.536991e-01	
5.489021e-01	 2.812529e-02	 2.990000e+01	 1.295284e+01	 9.542097e-01	
5.493799e-01	 2.821936e-02	 3.000000e+01	 1.296412e+01	 9.547151e-01	
5.498554e-01	 2.831342e-02	 3.010000e+01	 1.297534e+01	 9.552152e-01	
5.503287e-01	 2.840749e-02	 3.020000e+01	 1.298651e+01	 9.557102e-01	
5.507997e-01	 2.850155e-02	 3.030000e+01	 1.299762e+01	 9.562000e-01	
5.512684e-01	 2.859562e-02	 3.040000e+01	 1.300868e+01	 9.566849e-01	
5.517349e-01	 2.868968e-02	 3.050000e+01	 1.301969e+01	 9.571647e-01	
5.521992e-01	 2.878375e-02	 3.060000e+01	 1.303065e+01	 9.576396e-01	
5.526613e-01	 2.887781e-02	 3.070000e+01	 1.304155e+01	 9.581097e-01	
5.531213e-01	 2.897187e-02	 3.080000e+01	 1.305241e+01	 9.585749e-01	
5.535791e-01	 2.906594e-02	 3.090000e+01	 1.306321e+01	 9.590354e-01	
5.540348e-01	 2.916000e-02	 3.100000e+01	 1.307396e+01	 9.594911e-01	
5.544883e-01	 2.925407e-02	 3.110000e+01	 1.308467e+01	 9.599423e-01	
5.549398e-01	 2.934813e-02	 3.120000e+01	 1.309532e+01	 9.603888e-01	
5.553892e-01	 2.944220e-02	 3.130000e+01	 1.310592e+01	 9.608308e-01	
5.558365e-01	 2.953626e-02	 3.140000e+01	 1.311648e+01	 9.612682e-01	
5.562818e-01	 2.963033e-02	 3.150000e+01	 1.312699e+01	 9.617013e-01	
5.567250e-01	 2.972439e-02	 3.160000e+01	 1.313745e+01	 9.621299e-01	
5.571662e-01	 2.981846e-02	 3.170000e+01	 1.314786e+01	 9.625542e-01	
5.576055e-01	 2.991252e-02	 3.180000e+01	 1.315822e+01	 9.629742e-01	
5.580427e-01	 3.000658e-02	 3.190000e+01	 1.316854e+01	 9.633899e-01	
5.584780e-01	 3.010065e-02	 3.200000e+01	 1.317881e+01	 9.638015e-01	
5.589113e-01	 3.019471e-02	 3.210000e+01	 1.318904e+01	 9.642089e-01	
5.593427e-01	 3.028878e-02	 3.220000e+01	 1.319922e+01	 9.646122e-01	
5.597722e-01	 3.038284e-02	 3.230000e+01	 1.320935e+01	 9.650114e-01	
5.601998e-01	 3.047691e-02	 3.240000e+01	 1.321944e+01	 9.654066e-01	
5.606255e-01	 3.057097e-02	 3.250000e+01	 1.322949e+01	 9.657978e-01	
5.610493e-01	 3.066504e-02	 3.260000e+01	 1.323949e+01	 9.661851e-01	
5.614713e-01	 3.075910e-02	 3.270000e+01	 1.324945e+01	 9.665685e-01	
5.618914e-01	 3.085317e-02	 3.280000e+01	 1.325936e+01	 9.669480e-01	
5.623097e-01	 3.094723e-02	 3.290000e+01	 1.326923e+01	 9.673238e-01	
5.627262e-01	 3.104129e-02	 3.300000e+01	 1.327906e+01	 9.676957e-01	
5.631409e-01	 3.113536e-02	 3.310000e+01	 1.328885e+01	 9.680640e-01	
5.635537e-01	 3.122942e-02	 3.320000e+01	 1.329859e+01	 9.684285e-01	
5.639649e-01	 3.132349e-02	 3.330000e+01	 1.330829e+01	 9.687895e-01	
5.643742e-01	 3.141755e-02	 3.340000e+01	 1.331795e+01	 9.691468e-01	
5.647818e-01	 3.151162e-02	 3.350000e+01	 1.332757e+01	 9.695005e-01	
5.651877e-01	 3.160568e-02	 3.360000e+01	 1.333715e+01	 9.698507e-01	
5.655919e-01	 3.169975e-02	 3.370000e+01	 1.334668e+01	 9.701974e-01	
5.659944e-01	 3.179381e-02	 3.380000e+01	 1.335618e+01	 9.705407e-01	
5.663951e-01	 3.188788e-02	 3.390000e+01	 1.336564e+01	 9.708806e-01	
5.667942e-01	 3.198194e-02	 3.400000e+01	 1.337506e+01	 9.712170e-01	
5.671916e-01	 3.207600e-02	 3.410000e+01	 1.338444e+01	 9.715501e-01	
5.675874e-01	 3.217007e-02	 3.420000e+01	 1.339377e+01	 9.718799e-01	
5.679816e-01	 3.226413e-02	 3.430000e+01	 1.340307e+01	 9.722064e-01	
5.683741e-01	 3.235820e-02	 3.440000e+01	 1.341234e+01	 9.725297e-01	
5.687649e-01	 3.245226e-02	 3.450000e+01	 1.342156e+01	 9.728498e-01	
5.691542e-01	 3.254633e-02	 3.460000e+01	 1.343075e+01	 9.731667e-01	
5.695419e-01	 3.264039e-02	 3.470000e+01	 1.343990e+01	 9.734804e-01	
5.699280e-01	 3.273446e-02	 3.480000e+01	 1.344901e+01	 9.737910e-01	
5.703125e-01	 3.282852e-02	 3.490000e+01	 1.345808e+01	 9.740986e-01	
5.706955e-01	 3.292258e-02	 3.500000e+01	 1.346712e+01	 9.744031e-01	
5.710770e-01	 3.301665e-02	 3.510000e+01	 1.347612e+01	 9.747045e-01	
5.714569e-01	 3.311071e-02	 3.520000e+01	 1.348508e+01	 9.750030e-01	
5.718352e-01	 3.320478e-02	 3.530000e+01	 1.349401e+01	 9.752986e-01	
5.722121e-01	 3.329884e-02	 3.540000e+01	 1.350291e+01	 9.755912e-01	
5.725875e-01	 3.339291e-02	 3.550000e+01	 1.351176e+01	 9.758809e-01	
5.729613e-01	 3.348697e-02	 3.560000e+01	 1.352059e+01	 9.761677e-01	
5.733337e-01	 3.358104e-02	 3.570000e+01	 1.352937e+01	 9.764517e-01	
5.737046e-01	 3.367510e-02	 3.580000e+01	 1.353813e+01	 9.767329e-01	
5.740741e-01	 3.376917e-02	 3.590000e+01	 1.354685e+01	 9.770113e-01	
5.744421e-01	 3.386323e-02	 3.600000e+01	 1.355553e+01	 9.772869e-01	
5.748087e-01	 3.395729e-02	 3.610000e+01	 1.356418e+01	 9.775598e-01	
5.751738e-01	 3.405136e-02	 3.620000e+01	 1.357280e+01	 9.778300e-01	
5.755376e-01	 3.414542e-02	 3.630000e+01	 1.358138e+01	 9.780976e-01	
5.758999e-01	 3.423949e-02	 3.640000e+01	 1.358993e+01	 9.783625e-01	
5.762608e-01	 3.433355e-02	 3.650000e+01	 1.359845e+01	 9.786247e-01	
5.766204e-01	 3.442762e-02	 3.660000e+01	 1.360693e+01	 9.788844e-01	
5.769785e-01	 3.452168e-02	 3.670000e+01	 1.361538e+01	 9.791415e-01	
5.773353e-01	 3.461575e-02	 3.680000e+01	 1.362380e+01	 9.793961e-01	
5.776908e-01	 3.470981e-02	 3.690000e+01	 1.363219e+01	 9.796481e-01	
5.780449e-01	 3.480388e-02	 3.700000e+01	 1.364055e+01	 9.798976e-01	
5.783976e-01	 3.489794e-02	 3.710000e+01	 1.364887e+01	 9.801447e-01	
5.787491e-01	 3.499200e-02	 3.720000e+01	 1.365716e+01	 9.803893e-01	
5.790992e-01	 3.508607e-02	 3.730000e+01	 1.366543e+01	 9.806315e-01	
5.794480e-01	 3.518013e-02	 3.740000e+01	 1.367366e+01	 9.808713e-01	
5.797954e-01	 3.527420e-02	 3.750000e+01	 1.368186e+01	 9.811087e-01	
5.801416e-01	 3.536826e-02	 3.760000e+01	 1.369003e+01	 9.813437e-01	
5.804866e-01	 3.546233e-02	 3.770000e+01	 1.369816e+01	 9.815765e-01	
5.808302e-01	 3.555639e-02	 3.780000e+01	 1.370627e+01	 9.818069e-01	
5.811726e-01	 3.565046e-02	 3.790000e+01	 1.371435e+01	 9.820350e-01	
5.815137e-01	 3.574452e-02	 3.800000e+01	 1.372240e+01	 9.822608e-01	
5.818535e-01	 3.583859e-02	 3.810000e+01	 1.373042e+01	 9.824844e-01	
5.821922e-01	 3.593265e-02	 3.820000e+01	 1.373841e+01	 9.827058e-01	
5.825295e-01	 3.602671e-02	 3.830000e+01	 1.374637e+01	 9.829250e-01	
5.828657e-01	 3.612078e-02	 3.840000e+01	 1.375431e+01	 9.831420e-01	
5.832006e-01	 3.621484e-02	 3.850000e+01	 1.376221e+01	 9.833568e-01	
5.835344e-01	 3.630891e-02	 3.860000e+01	 1.377009e+01	 9.835695e-01	
5.838669e-01	 3.640297e-02	 3.870000e+01	 1.377793e+01	 9.837801e-01	
5.841983e-01	 3.649704e-02	 3.880000e+01	 1.378575e+01	 9.839885e-01	
5.845284e-01	 3.659110e-02	 3.890000e+01	 1.379354e+01	 9.841949e-01	
5.848574e-01	 3.668517e-02	 3.900000e+01	 1.380131e+01	 9.843992e-01	
5.851852e-01	 3.677923e-02	 3.910000e+01	 1.380904e+01	 9.846015e-01	
5.855119e-01	 3.687330e-02	 3.920000e+01	 1.381675e+01	 9.848017e-01	
5.858374e-01	 3.696736e-02	 3.930000e+01	 1.382443e+01	 9.850000e-01	
5.861617e-01	 3.706142e-02	 3.940000e+01	 1.383209e+01	 9.851962e-01	
5.864850e-01	 3.715549e-02	 3.950000e+01	 1.383971e+01	 9.853905e-01	
5.868071e-01	 3.724955e-02	 3.960000e+01	 1.384731e+01	 9.855828e-01	
5.871280e-01	 3.734362e-02	 3.970000e+01	 1.385489e+01	 9.857732e-01	
5.874479e-01	 3.743768e-02	 3.980000e+01	 1.386244e+01	 9.859617e-01	
5.877666e-01	 3.753175e-02	 3.990000e+01	 1.386996e+01	 9.861482e-01	
5.880843e-01	 3.762581e-02	 4.000000e+01	 1.387745e+01	 9.863329e-01	
5.884008e-01	 3.771988e-02	 4.010000e+01	 1.388492e+01	 9.865157e-01	
5.887163e-01	 3.781394e-02	 4.020000e+01	 1.389237e+01	 9.866967e-01	
5.890306e-01	 3.790800e-02	 4.030000e+01	 1.389979e+01	 9.868758e-01	
5.893439e-01	 3.800207e-02	 4.040000e+01	 1.390718e+01	 9.870531e-01	
5.896562e-01	 3.809613e-02	 4.050000e+01	 1.391455e+01	 9.872286e-01	
5.899673e-01	 3.819020e-02	 4.060000e+01	 1.392189e+01	 9.874024e-01	
5.902775e-01	 3.828426e-02	 4.070000e+01	 1.392921e+01	 9.875743e-01	
5.905865e-01	 3.837833e-02	 4.080000e+01	 1.393650e+01	 9.877445e-01	
5.908946e-01	 3.847239e-02	 4.090000e+01	 1.394377e+01	 9.879130e-01	
5.912016e-01	 3.856646e-02	 4.100000e+01	 1.395102e+01	 9.880798e-01	
5.915076e-01	 3.866052e-02	 4.110000e+01	 1.395824e+01	 9.882448e-01	
5.918125e-01	 3.875459e-02	 4.120000e+01	 1.396543e+01	 9.884082e-01	
5.921165e-01	 3.884865e-02	 4.130000e+01	 1.397260e+01	 9.885698e-01	
5.924194e-01	 3.894271e-02	 4.140000e+01	 1.397975e+01	 9.887298e-01	
5.927213e-01	 3.903678e-02	 4.150000e+01	 1.398688e+01	 9.888882e-01	
5.930223e-01	 3.913084e-02	 4.160000e+01	 1.399398e+01	 9.890449e-01	
5.933222e-01	 3.922491e-02	 4.170000e+01	 1.400106e+01	 9.892001e-01	
5.936212e-01	 3.931897e-02	 4.180000e+01	 1.400811e+01	 9.893536e-01	
5.939192e-01	 3.941304e-02	 4.190000e+01	 1.401514e+01	 9.895055e-01	
5.942162e-01	 3.950710e-02	 4.200000e+01	 1.402215e+01	 9.896558e-01	
5.945122e-01	 3.960117e-02	 4.210000e+01	 1.402914e+01	 9.898046e-01	
5.948073e-01	 3.969523e-02	 4.220000e+01	 1.403610e+01	 9.899518e-01	
5.951015e-01	 3.978930e-02	 4.230000e+01	 1.404304e+01	 9.900975e-01	
5.953947e-01	 3.988336e-02	 4.240000e+01	 1.404996e+01	 9.902416e-01	
5.956869e-01	 3.997742e-02	 4.250000e+01	 1.405686e+01	 9.903843e-01	
5.959782e-01	 4.007149e-02	 4.260000e+01	 1.406373e+01	 9.905254e-01	
5.962686e-01	 4.016555e-02	 4.270000e+01	 1.407059e+01	 9.906651e-01	
5.965581e-01	 4.025962e-02	 4.280000e+01	 1.407742e+01	 9.908033e-01	
5.968466e-01	 4.035368e-02	 4.290000e+01	 1.408423e+01	 9.909400e-01	
5.971343e-01	 4.044775e-02	 4.300000e+01	 1.409101e+01	 9.910753e-01	
5.974210e-01	 4.054181e-02	 4.310000e+01	 1.409778e+01	 9.912091e-01	
5.977068e-01	 4.063588e-02	 4.320000e+01	 1.410452e+01	 9.913416e-01	
5.979917e-01	 4.072994e-02	 4.330000e+01	 1.411125e+01	 9.914726e-01	
5.982758e-01	 4.082401e-02	 4.340000e+01	 1.411795e+01	 9.916022e-01	
5.985589e-01	 4.091807e-02	 4.350000e+01	 1.412463e+01	 9.917304e-01	
5.988412e-01	 4.101213e-02	 4.360000e+01	 1.413129e+01	 9.918572e-01	