title = 'U_plus_VanDriest_Mixing_Length_Model.dat'
variables = 'y+', 'U+' 
zone i=1002 f=point
0.000000e+00	 0.000000e+00	
1.000000e-01	 9.979202e-02	
2.000000e-01	 5.777969e-01	
7.000000e-01	 1.054713e+00	
1.200000e+00	 1.529290e+00	
1.700000e+00	 2.000178e+00	
2.200000e+00	 2.465892e+00	
2.700000e+00	 2.924821e+00	
3.200000e+00	 3.375268e+00	
3.700000e+00	 3.815515e+00	
4.200000e+00	 4.243911e+00	
4.700000e+00	 4.658962e+00	
5.200000e+00	 5.059411e+00	
5.700000e+00	 5.444286e+00	
6.200000e+00	 5.812930e+00	
6.700000e+00	 6.164997e+00	
7.200000e+00	 6.500423e+00	
7.700000e+00	 6.819389e+00	
8.200000e+00	 7.122275e+00	
8.700000e+00	 7.409610e+00	
9.200000e+00	 7.682035e+00	
9.700000e+00	 7.940257e+00	
1.020000e+01	 8.185025e+00	
1.070000e+01	 8.417102e+00	
1.120000e+01	 8.637248e+00	
1.170000e+01	 8.846204e+00	
1.220000e+01	 9.044685e+00	
1.270000e+01	 9.233372e+00	
1.320000e+01	 9.412908e+00	
1.370000e+01	 9.583899e+00	
1.420000e+01	 9.746912e+00	
1.470000e+01	 9.902472e+00	
1.520000e+01	 1.005107e+01	
1.570000e+01	 1.019316e+01	
1.620000e+01	 1.032917e+01	
1.670000e+01	 1.045948e+01	
1.720000e+01	 1.058446e+01	
1.770000e+01	 1.070443e+01	
1.820000e+01	 1.081971e+01	
1.870000e+01	 1.093058e+01	
1.920000e+01	 1.103731e+01	
1.970000e+01	 1.114013e+01	
2.020000e+01	 1.123929e+01	
2.070000e+01	 1.133498e+01	
2.120000e+01	 1.142740e+01	
2.170000e+01	 1.151673e+01	
2.220000e+01	 1.160314e+01	
2.270000e+01	 1.168678e+01	
2.320000e+01	 1.176781e+01	
2.370000e+01	 1.184636e+01	
2.420000e+01	 1.192255e+01	
2.470000e+01	 1.199650e+01	
2.520000e+01	 1.206832e+01	
2.570000e+01	 1.213812e+01	
2.620000e+01	 1.220599e+01	
2.670000e+01	 1.227202e+01	
2.720000e+01	 1.233630e+01	
2.770000e+01	 1.239891e+01	
2.820000e+01	 1.245992e+01	
2.870000e+01	 1.251940e+01	
2.920000e+01	 1.257742e+01	
2.970000e+01	 1.263405e+01	
3.020000e+01	 1.268933e+01	
3.070000e+01	 1.274333e+01	
3.120000e+01	 1.279610e+01	
3.170000e+01	 1.284769e+01	
3.220000e+01	 1.289815e+01	
3.270000e+01	 1.294751e+01	
3.320000e+01	 1.299583e+01	
3.370000e+01	 1.304313e+01	
3.420000e+01	 1.308947e+01	
3.470000e+01	 1.313487e+01	
3.520000e+01	 1.317938e+01	
3.570000e+01	 1.322301e+01	
3.620000e+01	 1.326581e+01	
3.670000e+01	 1.330780e+01	
3.720000e+01	 1.334901e+01	
3.770000e+01	 1.338947e+01	
3.820000e+01	 1.342920e+01	
3.870000e+01	 1.346823e+01	
3.920000e+01	 1.350657e+01	
3.970000e+01	 1.354426e+01	
4.020000e+01	 1.358131e+01	
4.070000e+01	 1.361774e+01	
4.120000e+01	 1.365358e+01	
4.170000e+01	 1.368883e+01	
4.220000e+01	 1.372352e+01	
4.270000e+01	 1.375767e+01	
4.320000e+01	 1.379129e+01	
4.370000e+01	 1.382440e+01	
4.420000e+01	 1.385701e+01	
4.470000e+01	 1.388913e+01	
4.520000e+01	 1.392079e+01	
4.570000e+01	 1.395198e+01	
4.620000e+01	 1.398274e+01	
4.670000e+01	 1.401306e+01	
4.720000e+01	 1.404296e+01	
4.770000e+01	 1.407245e+01	
4.820000e+01	 1.410154e+01	
4.870000e+01	 1.413025e+01	
4.920000e+01	 1.415858e+01	
4.970000e+01	 1.418654e+01	
5.020000e+01	 1.421414e+01	
5.070000e+01	 1.424139e+01	
5.120000e+01	 1.426830e+01	
5.170000e+01	 1.429487e+01	
5.220000e+01	 1.432113e+01	
5.270000e+01	 1.434706e+01	
5.320000e+01	 1.437269e+01	
5.370000e+01	 1.439802e+01	
5.420000e+01	 1.442305e+01	
5.470000e+01	 1.444779e+01	
5.520000e+01	 1.447225e+01	
5.570000e+01	 1.449644e+01	
5.620000e+01	 1.452036e+01	
5.670000e+01	 1.454401e+01	
5.720000e+01	 1.456741e+01	
5.770000e+01	 1.459056e+01	
5.820000e+01	 1.461346e+01	
5.870000e+01	 1.463612e+01	
5.920000e+01	 1.465854e+01	
5.970000e+01	 1.468074e+01	
6.020000e+01	 1.470271e+01	
6.070000e+01	 1.472445e+01	
6.120000e+01	 1.474598e+01	
6.170000e+01	 1.476730e+01	
6.220000e+01	 1.478841e+01	
6.270000e+01	 1.480932e+01	
6.320000e+01	 1.483003e+01	
6.370000e+01	 1.485054e+01	
6.420000e+01	 1.487086e+01	
6.470000e+01	 1.489099e+01	
6.520000e+01	 1.491093e+01	
6.570000e+01	 1.493070e+01	
6.620000e+01	 1.495028e+01	
6.670000e+01	 1.496970e+01	
6.720000e+01	 1.498894e+01	
6.770000e+01	 1.500801e+01	
6.820000e+01	 1.502692e+01	
6.870000e+01	 1.504566e+01	
6.920000e+01	 1.506425e+01	
6.970000e+01	 1.508267e+01	
7.020000e+01	 1.510095e+01	
7.070000e+01	 1.511907e+01	
7.120000e+01	 1.513705e+01	
7.170000e+01	 1.515488e+01	
7.220000e+01	 1.517256e+01	
7.270000e+01	 1.519011e+01	
7.320000e+01	 1.520751e+01	
7.370000e+01	 1.522478e+01	
7.420000e+01	 1.524192e+01	
7.470000e+01	 1.525892e+01	
7.520000e+01	 1.527579e+01	
7.570000e+01	 1.529254e+01	
7.620000e+01	 1.530915e+01	
7.670000e+01	 1.532565e+01	
7.720000e+01	 1.534202e+01	
7.770000e+01	 1.535828e+01	
7.820000e+01	 1.537441e+01	
7.870000e+01	 1.539043e+01	
7.920000e+01	 1.540633e+01	
7.970000e+01	 1.542212e+01	
8.020000e+01	 1.543780e+01	
8.070000e+01	 1.545337e+01	
8.120000e+01	 1.546884e+01	
8.170000e+01	 1.548419e+01	
8.220000e+01	 1.549944e+01	
8.270000e+01	 1.551459e+01	
8.320000e+01	 1.552964e+01	
8.370000e+01	 1.554458e+01	
8.420000e+01	 1.555943e+01	
8.470000e+01	 1.557418e+01	
8.520000e+01	 1.558883e+01	
8.570000e+01	 1.560339e+01	
8.620000e+01	 1.561785e+01	
8.670000e+01	 1.563222e+01	
8.720000e+01	 1.564651e+01	
8.770000e+01	 1.566070e+01	
8.820000e+01	 1.567480e+01	
8.870000e+01	 1.568881e+01	
8.920000e+01	 1.570274e+01	
8.970000e+01	 1.571659e+01	
9.020000e+01	 1.573034e+01	
9.070000e+01	 1.574402e+01	
9.120000e+01	 1.575761e+01	
9.170000e+01	 1.577113e+01	
9.220000e+01	 1.578456e+01	
9.270000e+01	 1.579792e+01	
9.320000e+01	 1.581119e+01	
9.370000e+01	 1.582439e+01	
9.420000e+01	 1.583751e+01	
9.470000e+01	 1.585056e+01	
9.520000e+01	 1.586354e+01	
9.570000e+01	 1.587644e+01	
9.620000e+01	 1.588927e+01	
9.670000e+01	 1.590202e+01	
9.720000e+01	 1.591471e+01	
9.770000e+01	 1.592733e+01	
9.820000e+01	 1.593987e+01	
9.870000e+01	 1.595235e+01	
9.920000e+01	 1.596477e+01	
9.970000e+01	 1.597711e+01	
1.002000e+02	 1.598939e+01	
1.007000e+02	 1.600160e+01	
1.012000e+02	 1.601375e+01	
1.017000e+02	 1.602584e+01	
1.022000e+02	 1.603786e+01	
1.027000e+02	 1.604982e+01	
1.032000e+02	 1.606172e+01	
1.037000e+02	 1.607356e+01	
1.042000e+02	 1.608534e+01	
1.047000e+02	 1.609705e+01	
1.052000e+02	 1.610871e+01	
1.057000e+02	 1.612031e+01	
1.062000e+02	 1.613186e+01	
1.067000e+02	 1.614334e+01	
1.072000e+02	 1.615477e+01	
1.077000e+02	 1.616615e+01	
1.082000e+02	 1.617746e+01	
1.087000e+02	 1.618873e+01	
1.092000e+02	 1.619993e+01	
1.097000e+02	 1.621109e+01	
1.102000e+02	 1.622219e+01	
1.107000e+02	 1.623324e+01	
1.112000e+02	 1.624424e+01	
1.117000e+02	 1.625518e+01	
1.122000e+02	 1.626608e+01	
1.127000e+02	 1.627692e+01	
1.132000e+02	 1.628772e+01	
1.137000e+02	 1.629846e+01	
1.142000e+02	 1.630916e+01	
1.147000e+02	 1.631980e+01	
1.152000e+02	 1.633040e+01	
1.157000e+02	 1.634095e+01	
1.162000e+02	 1.635145e+01	
1.167000e+02	 1.636191e+01	
1.172000e+02	 1.637232e+01	
1.177000e+02	 1.638269e+01	
1.182000e+02	 1.639300e+01	
1.187000e+02	 1.640328e+01	
1.192000e+02	 1.641351e+01	
1.197000e+02	 1.642369e+01	
1.202000e+02	 1.643383e+01	
1.207000e+02	 1.644393e+01	
1.212000e+02	 1.645399e+01	
1.217000e+02	 1.646400e+01	
1.222000e+02	 1.647397e+01	
1.227000e+02	 1.648389e+01	
1.232000e+02	 1.649378e+01	
1.237000e+02	 1.650363e+01	
1.242000e+02	 1.651343e+01	
1.247000e+02	 1.652319e+01	
1.252000e+02	 1.653292e+01	
1.257000e+02	 1.654260e+01	
1.262000e+02	 1.655224e+01	
1.267000e+02	 1.656185e+01	
1.272000e+02	 1.657142e+01	
1.277000e+02	 1.658094e+01	
1.282000e+02	 1.659043e+01	
1.287000e+02	 1.659988e+01	
1.292000e+02	 1.660930e+01	
1.297000e+02	 1.661868e+01	
1.302000e+02	 1.662802e+01	
1.307000e+02	 1.663732e+01	
1.312000e+02	 1.664659e+01	
1.317000e+02	 1.665582e+01	
1.322000e+02	 1.666502e+01	
1.327000e+02	 1.667418e+01	
1.332000e+02	 1.668330e+01	
1.337000e+02	 1.669239e+01	
1.342000e+02	 1.670145e+01	
1.347000e+02	 1.671047e+01	
1.352000e+02	 1.671946e+01	
1.357000e+02	 1.672841e+01	
1.362000e+02	 1.673733e+01	
1.367000e+02	 1.674622e+01	
1.372000e+02	 1.675507e+01	
1.377000e+02	 1.676389e+01	
1.382000e+02	 1.677268e+01	
1.387000e+02	 1.678144e+01	
1.392000e+02	 1.679016e+01	
1.397000e+02	 1.679886e+01	
1.402000e+02	 1.680752e+01	
1.407000e+02	 1.681615e+01	
1.412000e+02	 1.682475e+01	
1.417000e+02	 1.683332e+01	
1.422000e+02	 1.684185e+01	
1.427000e+02	 1.685036e+01	
1.432000e+02	 1.685884e+01	
1.437000e+02	 1.686729e+01	
1.442000e+02	 1.687571e+01	
1.447000e+02	 1.688409e+01	
1.452000e+02	 1.689245e+01	
1.457000e+02	 1.690078e+01	
1.462000e+02	 1.690908e+01	
1.467000e+02	 1.691736e+01	
1.472000e+02	 1.692560e+01	
1.477000e+02	 1.693382e+01	
1.482000e+02	 1.694201e+01	
1.487000e+02	 1.695017e+01	
1.492000e+02	 1.695830e+01	
1.497000e+02	 1.696640e+01	
1.502000e+02	 1.697448e+01	
1.507000e+02	 1.698253e+01	
1.512000e+02	 1.699056e+01	
1.517000e+02	 1.699855e+01	
1.522000e+02	 1.700653e+01	
1.527000e+02	 1.701447e+01	
1.532000e+02	 1.702239e+01	
1.537000e+02	 1.703028e+01	
1.542000e+02	 1.703815e+01	
1.547000e+02	 1.704599e+01	
1.552000e+02	 1.705380e+01	
1.557000e+02	 1.706159e+01	
1.562000e+02	 1.706936e+01	
1.567000e+02	 1.707710e+01	
1.572000e+02	 1.708482e+01	
1.577000e+02	 1.709251e+01	
1.582000e+02	 1.710017e+01	
1.587000e+02	 1.710782e+01	
1.592000e+02	 1.711543e+01	
1.597000e+02	 1.712303e+01	
1.602000e+02	 1.713060e+01	
1.607000e+02	 1.713814e+01	
1.612000e+02	 1.714567e+01	
1.617000e+02	 1.715317e+01	
1.622000e+02	 1.716064e+01	
1.627000e+02	 1.716810e+01	
1.632000e+02	 1.717553e+01	
1.637000e+02	 1.718293e+01	
1.642000e+02	 1.719032e+01	
1.647000e+02	 1.719768e+01	
1.652000e+02	 1.720502e+01	
1.657000e+02	 1.721234e+01	
1.662000e+02	 1.721964e+01	
1.667000e+02	 1.722691e+01	
1.672000e+02	 1.723416e+01	
1.677000e+02	 1.724139e+01	
1.682000e+02	 1.724860e+01	
1.687000e+02	 1.725579e+01	
1.692000e+02	 1.726295e+01	
1.697000e+02	 1.727010e+01	
1.702000e+02	 1.727722e+01	
1.707000e+02	 1.728433e+01	
1.712000e+02	 1.729141e+01	
1.717000e+02	 1.729847e+01	
1.722000e+02	 1.730551e+01	
1.727000e+02	 1.731253e+01	
1.732000e+02	 1.731953e+01	
1.737000e+02	 1.732651e+01	
1.742000e+02	 1.733347e+01	
1.747000e+02	 1.734041e+01	
1.752000e+02	 1.734733e+01	
1.757000e+02	 1.735423e+01	
1.762000e+02	 1.736111e+01	
1.767000e+02	 1.736797e+01	
1.772000e+02	 1.737482e+01	
1.777000e+02	 1.738164e+01	
1.782000e+02	 1.738844e+01	
1.787000e+02	 1.739523e+01	
1.792000e+02	 1.740199e+01	
1.797000e+02	 1.740874e+01	
1.802000e+02	 1.741547e+01	
1.807000e+02	 1.742218e+01	
1.812000e+02	 1.742887e+01	
1.817000e+02	 1.743554e+01	
1.822000e+02	 1.744220e+01	
1.827000e+02	 1.744883e+01	
1.832000e+02	 1.745545e+01	
1.837000e+02	 1.746205e+01	
1.842000e+02	 1.746863e+01	
1.847000e+02	 1.747520e+01	
1.852000e+02	 1.748174e+01	
1.857000e+02	 1.748827e+01	
1.862000e+02	 1.749478e+01	
1.867000e+02	 1.750128e+01	
1.872000e+02	 1.750775e+01	
1.877000e+02	 1.751421e+01	
1.882000e+02	 1.752066e+01	
1.887000e+02	 1.752708e+01	
1.892000e+02	 1.753349e+01	
1.897000e+02	 1.753988e+01	
1.902000e+02	 1.754626e+01	
1.907000e+02	 1.755261e+01	
1.912000e+02	 1.755896e+01	
1.917000e+02	 1.756528e+01	
1.922000e+02	 1.757159e+01	
1.927000e+02	 1.757788e+01	
1.932000e+02	 1.758416e+01	
1.937000e+02	 1.759042e+01	
1.942000e+02	 1.759666e+01	
1.947000e+02	 1.760289e+01	
1.952000e+02	 1.760910e+01	
1.957000e+02	 1.761530e+01	
1.962000e+02	 1.762148e+01	
1.967000e+02	 1.762764e+01	
1.972000e+02	 1.763379e+01	
1.977000e+02	 1.763992e+01	
1.982000e+02	 1.764604e+01	
1.987000e+02	 1.765214e+01	
1.992000e+02	 1.765823e+01	
1.997000e+02	 1.766430e+01	
2.002000e+02	 1.767036e+01	
2.007000e+02	 1.767640e+01	
2.012000e+02	 1.768243e+01	
2.017000e+02	 1.768844e+01	
2.022000e+02	 1.769444e+01	
2.027000e+02	 1.770042e+01	
2.032000e+02	 1.770639e+01	
2.037000e+02	 1.771234e+01	
2.042000e+02	 1.771828e+01	
2.047000e+02	 1.772421e+01	
2.052000e+02	 1.773012e+01	
2.057000e+02	 1.773601e+01	
2.062000e+02	 1.774189e+01	
2.067000e+02	 1.774776e+01	
2.072000e+02	 1.775361e+01	
2.077000e+02	 1.775945e+01	
2.082000e+02	 1.776528e+01	
2.087000e+02	 1.777109e+01	
2.092000e+02	 1.777688e+01	
2.097000e+02	 1.778267e+01	
2.102000e+02	 1.778844e+01	
2.107000e+02	 1.779419e+01	
2.112000e+02	 1.779994e+01	
2.117000e+02	 1.780567e+01	
2.122000e+02	 1.781138e+01	
2.127000e+02	 1.781708e+01	
2.132000e+02	 1.782277e+01	
2.137000e+02	 1.782845e+01	
2.142000e+02	 1.783411e+01	
2.147000e+02	 1.783976e+01	
2.152000e+02	 1.784540e+01	
2.157000e+02	 1.785102e+01	
2.162000e+02	 1.785663e+01	
2.167000e+02	 1.786223e+01	
2.172000e+02	 1.786781e+01	
2.177000e+02	 1.787338e+01	
2.182000e+02	 1.787894e+01	
2.187000e+02	 1.788449e+01	
2.192000e+02	 1.789002e+01	
2.197000e+02	 1.789554e+01	
2.202000e+02	 1.790105e+01	
2.207000e+02	 1.790655e+01	
2.212000e+02	 1.791203e+01	
2.217000e+02	 1.791750e+01	
2.222000e+02	 1.792296e+01	
2.227000e+02	 1.792841e+01	
2.232000e+02	 1.793384e+01	
2.237000e+02	 1.793927e+01	
2.242000e+02	 1.794468e+01	
2.247000e+02	 1.795008e+01	
2.252000e+02	 1.795546e+01	
2.257000e+02	 1.796084e+01	
2.262000e+02	 1.796620e+01	
2.267000e+02	 1.797155e+01	
2.272000e+02	 1.797689e+01	
2.277000e+02	 1.798222e+01	
2.282000e+02	 1.798754e+01	
2.287000e+02	 1.799284e+01	
2.292000e+02	 1.799813e+01	
2.297000e+02	 1.800341e+01	
2.302000e+02	 1.800868e+01	
2.307000e+02	 1.801394e+01	
2.312000e+02	 1.801919e+01	
2.317000e+02	 1.802443e+01	
2.322000e+02	 1.802965e+01	
2.327000e+02	 1.803487e+01	
2.332000e+02	 1.804007e+01	
2.337000e+02	 1.804526e+01	
2.342000e+02	 1.805044e+01	
2.347000e+02	 1.805561e+01	
2.352000e+02	 1.806077e+01	
2.357000e+02	 1.806592e+01	
2.362000e+02	 1.807105e+01	
2.367000e+02	 1.807618e+01	
2.372000e+02	 1.808130e+01	
2.377000e+02	 1.808640e+01	
2.382000e+02	 1.809149e+01	
2.387000e+02	 1.809658e+01	
2.392000e+02	 1.810165e+01	
2.397000e+02	 1.810671e+01	
2.402000e+02	 1.811176e+01	
2.407000e+02	 1.811681e+01	
2.412000e+02	 1.812184e+01	
2.417000e+02	 1.812686e+01	
2.422000e+02	 1.813187e+01	
2.427000e+02	 1.813687e+01	
2.432000e+02	 1.814186e+01	
2.437000e+02	 1.814684e+01	
2.442000e+02	 1.815181e+01	
2.447000e+02	 1.815677e+01	
2.452000e+02	 1.816171e+01	
2.457000e+02	 1.816665e+01	
2.462000e+02	 1.817158e+01	
2.467000e+02	 1.817650e+01	
2.472000e+02	 1.818141e+01	
2.477000e+02	 1.818631e+01	
2.482000e+02	 1.819120e+01	
2.487000e+02	 1.819608e+01	
2.492000e+02	 1.820095e+01	
2.497000e+02	 1.820581e+01	
2.502000e+02	 1.821066e+01	
2.507000e+02	 1.821550e+01	
2.512000e+02	 1.822033e+01	
2.517000e+02	 1.822516e+01	
2.522000e+02	 1.822997e+01	
2.527000e+02	 1.823477e+01	
2.532000e+02	 1.823956e+01	
2.537000e+02	 1.824435e+01	
2.542000e+02	 1.824912e+01	
2.547000e+02	 1.825389e+01	
2.552000e+02	 1.825864e+01	
2.557000e+02	 1.826339e+01	
2.562000e+02	 1.826813e+01	
2.567000e+02	 1.827286e+01	
2.572000e+02	 1.827758e+01	
2.577000e+02	 1.828229e+01	
2.582000e+02	 1.828699e+01	
2.587000e+02	 1.829168e+01	
2.592000e+02	 1.829636e+01	
2.597000e+02	 1.830104e+01	
2.602000e+02	 1.830570e+01	
2.607000e+02	 1.831036e+01	
2.612000e+02	 1.831500e+01	
2.617000e+02	 1.831964e+01	
2.622000e+02	 1.832427e+01	
2.627000e+02	 1.832889e+01	
2.632000e+02	 1.833351e+01	
2.637000e+02	 1.833811e+01	
2.642000e+02	 1.834270e+01	
2.647000e+02	 1.834729e+01	
2.652000e+02	 1.835187e+01	
2.657000e+02	 1.835644e+01	
2.662000e+02	 1.836100e+01	
2.667000e+02	 1.836555e+01	
2.672000e+02	 1.837009e+01	
2.677000e+02	 1.837463e+01	
2.682000e+02	 1.837915e+01	
2.687000e+02	 1.838367e+01	
2.692000e+02	 1.838818e+01	
2.697000e+02	 1.839268e+01	
2.702000e+02	 1.839718e+01	
2.707000e+02	 1.840166e+01	
2.712000e+02	 1.840614e+01	
2.717000e+02	 1.841061e+01	
2.722000e+02	 1.841507e+01	
2.727000e+02	 1.841952e+01	
2.732000e+02	 1.842396e+01	
2.737000e+02	 1.842840e+01	
2.742000e+02	 1.843283e+01	
2.747000e+02	 1.843724e+01	
2.752000e+02	 1.844166e+01	
2.757000e+02	 1.844606e+01	
2.762000e+02	 1.845046e+01	
2.767000e+02	 1.845484e+01	
2.772000e+02	 1.845922e+01	
2.777000e+02	 1.846360e+01	
2.782000e+02	 1.846796e+01	
2.787000e+02	 1.847232e+01	
2.792000e+02	 1.847667e+01	
2.797000e+02	 1.848101e+01	
2.802000e+02	 1.848534e+01	
2.807000e+02	 1.848967e+01	
2.812000e+02	 1.849399e+01	
2.817000e+02	 1.849830e+01	
2.822000e+02	 1.850260e+01	
2.827000e+02	 1.850689e+01	
2.832000e+02	 1.851118e+01	
2.837000e+02	 1.851546e+01	
2.842000e+02	 1.851973e+01	
2.847000e+02	 1.852400e+01	
2.852000e+02	 1.852826e+01	
2.857000e+02	 1.853251e+01	
2.862000e+02	 1.853675e+01	
2.867000e+02	 1.854099e+01	
2.872000e+02	 1.854521e+01	
2.877000e+02	 1.854944e+01	
2.882000e+02	 1.855365e+01	
2.887000e+02	 1.855785e+01	
2.892000e+02	 1.856205e+01	
2.897000e+02	 1.856625e+01	
2.902000e+02	 1.857043e+01	
2.907000e+02	 1.857461e+01	
2.912000e+02	 1.857878e+01	
2.917000e+02	 1.858294e+01	
2.922000e+02	 1.858710e+01	
2.927000e+02	 1.859125e+01	
2.932000e+02	 1.859539e+01	
2.937000e+02	 1.859952e+01	
2.942000e+02	 1.860365e+01	
2.947000e+02	 1.860777e+01	
2.952000e+02	 1.861189e+01	
2.957000e+02	 1.861599e+01	
2.962000e+02	 1.862009e+01	
2.967000e+02	 1.862419e+01	
2.972000e+02	 1.862827e+01	
2.977000e+02	 1.863235e+01	
2.982000e+02	 1.863643e+01	
2.987000e+02	 1.864049e+01	
2.992000e+02	 1.864455e+01	
2.997000e+02	 1.864861e+01	
3.002000e+02	 1.865265e+01	
3.007000e+02	 1.865669e+01	
3.012000e+02	 1.866072e+01	
3.017000e+02	 1.866475e+01	
3.022000e+02	 1.866877e+01	
3.027000e+02	 1.867278e+01	
3.032000e+02	 1.867679e+01	
3.037000e+02	 1.868079e+01	
3.042000e+02	 1.868478e+01	
3.047000e+02	 1.868876e+01	
3.052000e+02	 1.869274e+01	
3.057000e+02	 1.869672e+01	
3.062000e+02	 1.870068e+01	
3.067000e+02	 1.870465e+01	
3.072000e+02	 1.870860e+01	
3.077000e+02	 1.871255e+01	
3.082000e+02	 1.871649e+01	
3.087000e+02	 1.872042e+01	
3.092000e+02	 1.872435e+01	
3.097000e+02	 1.872827e+01	
3.102000e+02	 1.873219e+01	
3.107000e+02	 1.873610e+01	
3.112000e+02	 1.874000e+01	
3.117000e+02	 1.874390e+01	
3.122000e+02	 1.874779e+01	
3.127000e+02	 1.875168e+01	
3.132000e+02	 1.875555e+01	
3.137000e+02	 1.875943e+01	
3.142000e+02	 1.876329e+01	
3.147000e+02	 1.876715e+01	
3.152000e+02	 1.877101e+01	
3.157000e+02	 1.877485e+01	
3.162000e+02	 1.877870e+01	
3.167000e+02	 1.878253e+01	
3.172000e+02	 1.878636e+01	
3.177000e+02	 1.879019e+01	
3.182000e+02	 1.879400e+01	
3.187000e+02	 1.879782e+01	
3.192000e+02	 1.880162e+01	
3.197000e+02	 1.880542e+01	
3.202000e+02	 1.880922e+01	
3.207000e+02	 1.881300e+01	
3.212000e+02	 1.881679e+01	
3.217000e+02	 1.882056e+01	
3.222000e+02	 1.882433e+01	
3.227000e+02	 1.882810e+01	
3.232000e+02	 1.883186e+01	
3.237000e+02	 1.883561e+01	
3.242000e+02	 1.883936e+01	
3.247000e+02	 1.884310e+01	
3.252000e+02	 1.884684e+01	
3.257000e+02	 1.885057e+01	
3.262000e+02	 1.885429e+01	
3.267000e+02	 1.885801e+01	
3.272000e+02	 1.886172e+01	
3.277000e+02	 1.886543e+01	
3.282000e+02	 1.886913e+01	
3.287000e+02	 1.887283e+01	
3.292000e+02	 1.887652e+01	
3.297000e+02	 1.888020e+01	
3.302000e+02	 1.888388e+01	
3.307000e+02	 1.888756e+01	
3.312000e+02	 1.889123e+01	
3.317000e+02	 1.889489e+01	
3.322000e+02	 1.889855e+01	
3.327000e+02	 1.890220e+01	
3.332000e+02	 1.890585e+01	
3.337000e+02	 1.890949e+01	
3.342000e+02	 1.891312e+01	
3.347000e+02	 1.891675e+01	
3.352000e+02	 1.892038e+01	
3.357000e+02	 1.892400e+01	
3.362000e+02	 1.892761e+01	
3.367000e+02	 1.893122e+01	
3.372000e+02	 1.893482e+01	
3.377000e+02	 1.893842e+01	
3.382000e+02	 1.894202e+01	
3.387000e+02	 1.894560e+01	
3.392000e+02	 1.894919e+01	
3.397000e+02	 1.895276e+01	
3.402000e+02	 1.895633e+01	
3.407000e+02	 1.895990e+01	
3.412000e+02	 1.896346e+01	
3.417000e+02	 1.896702e+01	
3.422000e+02	 1.897057e+01	
3.427000e+02	 1.897412e+01	
3.432000e+02	 1.897766e+01	
3.437000e+02	 1.898119e+01	
3.442000e+02	 1.898472e+01	
3.447000e+02	 1.898825e+01	
3.452000e+02	 1.899177e+01	
3.457000e+02	 1.899528e+01	
3.462000e+02	 1.899879e+01	
3.467000e+02	 1.900230e+01	
3.472000e+02	 1.900580e+01	
3.477000e+02	 1.900929e+01	
3.482000e+02	 1.901278e+01	
3.487000e+02	 1.901627e+01	
3.492000e+02	 1.901975e+01	
3.497000e+02	 1.902322e+01	
3.502000e+02	 1.902669e+01	
3.507000e+02	 1.903016e+01	
3.512000e+02	 1.903362e+01	
3.517000e+02	 1.903707e+01	
3.522000e+02	 1.904053e+01	
3.527000e+02	 1.904397e+01	
3.532000e+02	 1.904741e+01	
3.537000e+02	 1.905085e+01	
3.542000e+02	 1.905428e+01	
3.547000e+02	 1.905771e+01	
3.552000e+02	 1.906113e+01	
3.557000e+02	 1.906454e+01	
3.562000e+02	 1.906796e+01	
3.567000e+02	 1.907136e+01	
3.572000e+02	 1.907477e+01	
3.577000e+02	 1.907816e+01	
3.582000e+02	 1.908156e+01	
3.587000e+02	 1.908494e+01	
3.592000e+02	 1.908833e+01	
3.597000e+02	 1.909171e+01	
3.602000e+02	 1.909508e+01	
3.607000e+02	 1.909845e+01	
3.612000e+02	 1.910181e+01	
3.617000e+02	 1.910518e+01	
3.622000e+02	 1.910853e+01	
3.627000e+02	 1.911188e+01	
3.632000e+02	 1.911523e+01	
3.637000e+02	 1.911857e+01	
3.642000e+02	 1.912191e+01	
3.647000e+02	 1.912524e+01	
3.652000e+02	 1.912857e+01	
3.657000e+02	 1.913189e+01	
3.662000e+02	 1.913521e+01	
3.667000e+02	 1.913853e+01	
3.672000e+02	 1.914184e+01	
3.677000e+02	 1.914514e+01	
3.682000e+02	 1.914844e+01	
3.687000e+02	 1.915174e+01	
3.692000e+02	 1.915503e+01	
3.697000e+02	 1.915832e+01	
3.702000e+02	 1.916160e+01	
3.707000e+02	 1.916488e+01	
3.712000e+02	 1.916816e+01	
3.717000e+02	 1.917143e+01	
3.722000e+02	 1.917469e+01	
3.727000e+02	 1.917795e+01	
3.732000e+02	 1.918121e+01	
3.737000e+02	 1.918446e+01	
3.742000e+02	 1.918771e+01	
3.747000e+02	 1.919095e+01	
3.752000e+02	 1.919419e+01	
3.757000e+02	 1.919743e+01	
3.762000e+02	 1.920066e+01	
3.767000e+02	 1.920389e+01	
3.772000e+02	 1.920711e+01	
3.777000e+02	 1.921033e+01	
3.782000e+02	 1.921354e+01	
3.787000e+02	 1.921675e+01	
3.792000e+02	 1.921996e+01	
3.797000e+02	 1.922316e+01	
3.802000e+02	 1.922636e+01	
3.807000e+02	 1.922955e+01	
3.812000e+02	 1.923274e+01	
3.817000e+02	 1.923592e+01	
3.822000e+02	 1.923910e+01	
3.827000e+02	 1.924228e+01	
3.832000e+02	 1.924545e+01	
3.837000e+02	 1.924862e+01	
3.842000e+02	 1.925179e+01	
3.847000e+02	 1.925495e+01	
3.852000e+02	 1.925810e+01	
3.857000e+02	 1.926125e+01	
3.862000e+02	 1.926440e+01	
3.867000e+02	 1.926754e+01	
3.872000e+02	 1.927068e+01	
3.877000e+02	 1.927382e+01	
3.882000e+02	 1.927695e+01	
3.887000e+02	 1.928008e+01	
3.892000e+02	 1.928320e+01	
3.897000e+02	 1.928632e+01	
3.902000e+02	 1.928944e+01	
3.907000e+02	 1.929255e+01	
3.912000e+02	 1.929566e+01	
3.917000e+02	 1.929876e+01	
3.922000e+02	 1.930186e+01	
3.927000e+02	 1.930496e+01	
3.932000e+02	 1.930805e+01	
3.937000e+02	 1.931114e+01	
3.942000e+02	 1.931422e+01	
3.947000e+02	 1.931730e+01	
3.952000e+02	 1.932038e+01	
3.957000e+02	 1.932345e+01	
3.962000e+02	 1.932652e+01	
3.967000e+02	 1.932958e+01	
3.972000e+02	 1.933264e+01	
3.977000e+02	 1.933570e+01	
3.982000e+02	 1.933875e+01	
3.987000e+02	 1.934180e+01	
3.992000e+02	 1.934485e+01	
3.997000e+02	 1.934789e+01	
4.002000e+02	 1.935093e+01	
4.007000e+02	 1.935396e+01	
4.012000e+02	 1.935699e+01	
4.017000e+02	 1.936002e+01	
4.022000e+02	 1.936304e+01	
4.027000e+02	 1.936606e+01	
4.032000e+02	 1.936908e+01	
4.037000e+02	 1.937209e+01	
4.042000e+02	 1.937510e+01	
4.047000e+02	 1.937810e+01	
4.052000e+02	 1.938110e+01	
4.057000e+02	 1.938410e+01	
4.062000e+02	 1.938709e+01	
4.067000e+02	 1.939008e+01	
4.072000e+02	 1.939307e+01	
4.077000e+02	 1.939605e+01	
4.082000e+02	 1.939903e+01	
4.087000e+02	 1.940200e+01	
4.092000e+02	 1.940497e+01	
4.097000e+02	 1.940794e+01	
4.102000e+02	 1.941091e+01	
4.107000e+02	 1.941387e+01	
4.112000e+02	 1.941682e+01	
4.117000e+02	 1.941978e+01	
4.122000e+02	 1.942273e+01	
4.127000e+02	 1.942567e+01	
4.132000e+02	 1.942862e+01	
4.137000e+02	 1.943155e+01	
4.142000e+02	 1.943449e+01	
4.147000e+02	 1.943742e+01	
4.152000e+02	 1.944035e+01	
4.157000e+02	 1.944328e+01	
4.162000e+02	 1.944620e+01	
4.167000e+02	 1.944912e+01	
4.172000e+02	 1.945203e+01	
4.177000e+02	 1.945494e+01	
4.182000e+02	 1.945785e+01	
4.187000e+02	 1.946075e+01	
4.192000e+02	 1.946365e+01	
4.197000e+02	 1.946655e+01	
4.202000e+02	 1.946944e+01	
4.207000e+02	 1.947233e+01	
4.212000e+02	 1.947522e+01	
4.217000e+02	 1.947810e+01	
4.222000e+02	 1.948099e+01	
4.227000e+02	 1.948386e+01	
4.232000e+02	 1.948674e+01	
4.237000e+02	 1.948961e+01	
4.242000e+02	 1.949247e+01	
4.247000e+02	 1.949533e+01	
4.252000e+02	 1.949819e+01	
4.257000e+02	 1.950105e+01	
4.262000e+02	 1.950390e+01	
4.267000e+02	 1.950675e+01	
4.272000e+02	 1.950960e+01	
4.277000e+02	 1.951244e+01	
4.282000e+02	 1.951528e+01	
4.287000e+02	 1.951812e+01	
4.292000e+02	 1.952095e+01	
4.297000e+02	 1.952378e+01	
4.302000e+02	 1.952661e+01	
4.307000e+02	 1.952943e+01	
4.312000e+02	 1.953225e+01	
4.317000e+02	 1.953507e+01	
4.322000e+02	 1.953788e+01	
4.327000e+02	 1.954069e+01	
4.332000e+02	 1.954350e+01	
4.337000e+02	 1.954631e+01	
4.342000e+02	 1.954911e+01	
4.347000e+02	 1.955190e+01	
4.352000e+02	 1.955470e+01	
4.357000e+02	 1.955749e+01	
4.362000e+02	 1.956028e+01	
4.367000e+02	 1.956306e+01	
4.372000e+02	 1.956584e+01	
4.377000e+02	 1.956862e+01	
4.382000e+02	 1.957140e+01	
4.387000e+02	 1.957417e+01	
4.392000e+02	 1.957694e+01	
4.397000e+02	 1.957970e+01	
4.402000e+02	 1.958247e+01	
4.407000e+02	 1.958523e+01	
4.412000e+02	 1.958798e+01	
4.417000e+02	 1.959074e+01	
4.422000e+02	 1.959349e+01	
4.427000e+02	 1.959623e+01	
4.432000e+02	 1.959898e+01	
4.437000e+02	 1.960172e+01	
4.442000e+02	 1.960446e+01	
4.447000e+02	 1.960719e+01	
4.452000e+02	 1.960992e+01	
4.457000e+02	 1.961265e+01	
4.462000e+02	 1.961538e+01	
4.467000e+02	 1.961810e+01	
4.472000e+02	 1.962082e+01	
4.477000e+02	 1.962354e+01	
4.482000e+02	 1.962625e+01	
4.487000e+02	 1.962896e+01	
4.492000e+02	 1.963167e+01	
4.497000e+02	 1.963437e+01	
4.502000e+02	 1.963707e+01	
4.507000e+02	 1.963977e+01	
4.512000e+02	 1.964247e+01	
4.517000e+02	 1.964516e+01	
4.522000e+02	 1.964785e+01	
4.527000e+02	 1.965054e+01	
4.532000e+02	 1.965322e+01	
4.537000e+02	 1.965590e+01	
4.542000e+02	 1.965858e+01	
4.547000e+02	 1.966125e+01	
4.552000e+02	 1.966393e+01	
4.557000e+02	 1.966659e+01	
4.562000e+02	 1.966926e+01	
4.567000e+02	 1.967192e+01	
4.572000e+02	 1.967458e+01	
4.577000e+02	 1.967724e+01	
4.582000e+02	 1.967990e+01	
4.587000e+02	 1.968255e+01	
4.592000e+02	 1.968520e+01	
4.597000e+02	 1.968784e+01	
4.602000e+02	 1.969048e+01	
4.607000e+02	 1.969312e+01	
4.612000e+02	 1.969576e+01	
4.617000e+02	 1.969840e+01	
4.622000e+02	 1.970103e+01	
4.627000e+02	 1.970366e+01	
4.632000e+02	 1.970628e+01	
4.637000e+02	 1.970891e+01	
4.642000e+02	 1.971153e+01	
4.647000e+02	 1.971414e+01	
4.652000e+02	 1.971676e+01	
4.657000e+02	 1.971937e+01	
4.662000e+02	 1.972198e+01	
4.667000e+02	 1.972458e+01	
4.672000e+02	 1.972719e+01	
4.677000e+02	 1.972979e+01	
4.682000e+02	 1.973239e+01	
4.687000e+02	 1.973498e+01	
4.692000e+02	 1.973757e+01	
4.697000e+02	 1.974016e+01	
4.702000e+02	 1.974275e+01	
4.707000e+02	 1.974533e+01	
4.712000e+02	 1.974792e+01	
4.717000e+02	 1.975049e+01	
4.722000e+02	 1.975307e+01	
4.727000e+02	 1.975564e+01	
4.732000e+02	 1.975821e+01	
4.737000e+02	 1.976078e+01	
4.742000e+02	 1.976335e+01	
4.747000e+02	 1.976591e+01	
4.752000e+02	 1.976847e+01	
4.757000e+02	 1.977103e+01	
4.762000e+02	 1.977358e+01	
4.767000e+02	 1.977613e+01	
4.772000e+02	 1.977868e+01	
4.777000e+02	 1.978123e+01	
4.782000e+02	 1.978377e+01	
4.787000e+02	 1.978631e+01	
4.792000e+02	 1.978885e+01	
4.797000e+02	 1.979139e+01	
4.802000e+02	 1.979392e+01	
4.807000e+02	 1.979645e+01	
4.812000e+02	 1.979898e+01	
4.817000e+02	 1.980150e+01	
4.822000e+02	 1.980403e+01	
4.827000e+02	 1.980655e+01	
4.832000e+02	 1.980906e+01	
4.837000e+02	 1.981158e+01	
4.842000e+02	 1.981409e+01	
4.847000e+02	 1.981660e+01	
4.852000e+02	 1.981911e+01	
4.857000e+02	 1.982161e+01	
4.862000e+02	 1.982411e+01	
4.867000e+02	 1.982661e+01	
4.872000e+02	 1.982911e+01	
4.877000e+02	 1.983160e+01	
4.882000e+02	 1.983410e+01	
4.887000e+02	 1.983659e+01	
4.892000e+02	 1.983907e+01	
4.897000e+02	 1.984156e+01	
4.902000e+02	 1.984404e+01	
4.907000e+02	 1.984652e+01	
4.912000e+02	 1.984899e+01	
4.917000e+02	 1.985147e+01	
4.922000e+02	 1.985394e+01	
4.927000e+02	 1.985641e+01	
4.932000e+02	 1.985887e+01	
4.937000e+02	 1.986134e+01	
4.942000e+02	 1.986380e+01	
4.947000e+02	 1.986626e+01	
4.952000e+02	 1.986872e+01	
4.957000e+02	 1.987117e+01	
4.962000e+02	 1.987362e+01	
4.967000e+02	 1.987607e+01	
4.972000e+02	 1.987852e+01	
4.977000e+02	 1.988096e+01	
4.982000e+02	 1.988340e+01	
4.987000e+02	 1.988584e+01	
4.992000e+02	 1.988828e+01	
4.997000e+02	 1.989031e+01	
