title = 'U_plus_Karman_Mixing_Length_Model.dat'
variables = 'y+', 'U+' 
zone i=1002 f=point
0.000000e+00	 0.000000e+00	
1.000000e-01	 9.929725e-02	
2.000000e-01	 5.633855e-01	
7.000000e-01	 9.852848e-01	
1.200000e+00	 1.363544e+00	
1.700000e+00	 1.702042e+00	
2.200000e+00	 2.006072e+00	
2.700000e+00	 2.280738e+00	
3.200000e+00	 2.530469e+00	
3.700000e+00	 2.758959e+00	
4.200000e+00	 2.969248e+00	
4.700000e+00	 3.163832e+00	
5.200000e+00	 3.344764e+00	
5.700000e+00	 3.513745e+00	
6.200000e+00	 3.672193e+00	
6.700000e+00	 3.821297e+00	
7.200000e+00	 3.962064e+00	
7.700000e+00	 4.095352e+00	
8.200000e+00	 4.221896e+00	
8.700000e+00	 4.342331e+00	
9.200000e+00	 4.457207e+00	
9.700000e+00	 4.567007e+00	
1.020000e+01	 4.672153e+00	
1.070000e+01	 4.773016e+00	
1.120000e+01	 4.869928e+00	
1.170000e+01	 4.963183e+00	
1.220000e+01	 5.053043e+00	
1.270000e+01	 5.139744e+00	
1.320000e+01	 5.223499e+00	
1.370000e+01	 5.304499e+00	
1.420000e+01	 5.382918e+00	
1.470000e+01	 5.458914e+00	
1.520000e+01	 5.532632e+00	
1.570000e+01	 5.604202e+00	
1.620000e+01	 5.673746e+00	
1.670000e+01	 5.741375e+00	
1.720000e+01	 5.807189e+00	
1.770000e+01	 5.871285e+00	
1.820000e+01	 5.933748e+00	
1.870000e+01	 5.994660e+00	
1.920000e+01	 6.054095e+00	
1.970000e+01	 6.112122e+00	
2.020000e+01	 6.168807e+00	
2.070000e+01	 6.224210e+00	
2.120000e+01	 6.278388e+00	
2.170000e+01	 6.331393e+00	
2.220000e+01	 6.383275e+00	
2.270000e+01	 6.434079e+00	
2.320000e+01	 6.483851e+00	
2.370000e+01	 6.532631e+00	
2.420000e+01	 6.580457e+00	
2.470000e+01	 6.627367e+00	
2.520000e+01	 6.673393e+00	
2.570000e+01	 6.718570e+00	
2.620000e+01	 6.762927e+00	
2.670000e+01	 6.806494e+00	
2.720000e+01	 6.849299e+00	
2.770000e+01	 6.891367e+00	
2.820000e+01	 6.932723e+00	
2.870000e+01	 6.973392e+00	
2.920000e+01	 7.013395e+00	
2.970000e+01	 7.052753e+00	
3.020000e+01	 7.091488e+00	
3.070000e+01	 7.129619e+00	
3.120000e+01	 7.167164e+00	
3.170000e+01	 7.204141e+00	
3.220000e+01	 7.240566e+00	
3.270000e+01	 7.276457e+00	
3.320000e+01	 7.311828e+00	
3.370000e+01	 7.346694e+00	
3.420000e+01	 7.381069e+00	
3.470000e+01	 7.414968e+00	
3.520000e+01	 7.448402e+00	
3.570000e+01	 7.481386e+00	
3.620000e+01	 7.513929e+00	
3.670000e+01	 7.546045e+00	
3.720000e+01	 7.577744e+00	
3.770000e+01	 7.609037e+00	
3.820000e+01	 7.639934e+00	
3.870000e+01	 7.670445e+00	
3.920000e+01	 7.700579e+00	
3.970000e+01	 7.730346e+00	
4.020000e+01	 7.759755e+00	
4.070000e+01	 7.788813e+00	
4.120000e+01	 7.817530e+00	
4.170000e+01	 7.845913e+00	
4.220000e+01	 7.873970e+00	
4.270000e+01	 7.901708e+00	
4.320000e+01	 7.929135e+00	
4.370000e+01	 7.956257e+00	
4.420000e+01	 7.983081e+00	
4.470000e+01	 8.009613e+00	
4.520000e+01	 8.035860e+00	
4.570000e+01	 8.061828e+00	
4.620000e+01	 8.087523e+00	
4.670000e+01	 8.112950e+00	
4.720000e+01	 8.138115e+00	
4.770000e+01	 8.163023e+00	
4.820000e+01	 8.187680e+00	
4.870000e+01	 8.212090e+00	
4.920000e+01	 8.236258e+00	
4.970000e+01	 8.260189e+00	
5.020000e+01	 8.283888e+00	
5.070000e+01	 8.307359e+00	
5.120000e+01	 8.330607e+00	
5.170000e+01	 8.353635e+00	
5.220000e+01	 8.376448e+00	
5.270000e+01	 8.399050e+00	
5.320000e+01	 8.421444e+00	
5.370000e+01	 8.443635e+00	
5.420000e+01	 8.465626e+00	
5.470000e+01	 8.487420e+00	
5.520000e+01	 8.509022e+00	
5.570000e+01	 8.530434e+00	
5.620000e+01	 8.551659e+00	
5.670000e+01	 8.572702e+00	
5.720000e+01	 8.593565e+00	
5.770000e+01	 8.614251e+00	
5.820000e+01	 8.634763e+00	
5.870000e+01	 8.655104e+00	
5.920000e+01	 8.675278e+00	
5.970000e+01	 8.695285e+00	
6.020000e+01	 8.715130e+00	
6.070000e+01	 8.734815e+00	
6.120000e+01	 8.754342e+00	
6.170000e+01	 8.773715e+00	
6.220000e+01	 8.792934e+00	
6.270000e+01	 8.812004e+00	
6.320000e+01	 8.830926e+00	
6.370000e+01	 8.849702e+00	
6.420000e+01	 8.868334e+00	
6.470000e+01	 8.886826e+00	
6.520000e+01	 8.905178e+00	
6.570000e+01	 8.923394e+00	
6.620000e+01	 8.941474e+00	
6.670000e+01	 8.959422e+00	
6.720000e+01	 8.977238e+00	
6.770000e+01	 8.994926e+00	
6.820000e+01	 9.012486e+00	
6.870000e+01	 9.029920e+00	
6.920000e+01	 9.047231e+00	
6.970000e+01	 9.064420e+00	
7.020000e+01	 9.081489e+00	
7.070000e+01	 9.098439e+00	
7.120000e+01	 9.115272e+00	
7.170000e+01	 9.131990e+00	
7.220000e+01	 9.148594e+00	
7.270000e+01	 9.165085e+00	
7.320000e+01	 9.181467e+00	
7.370000e+01	 9.197738e+00	
7.420000e+01	 9.213902e+00	
7.470000e+01	 9.229960e+00	
7.520000e+01	 9.245913e+00	
7.570000e+01	 9.261762e+00	
7.620000e+01	 9.277509e+00	
7.670000e+01	 9.293154e+00	
7.720000e+01	 9.308700e+00	
7.770000e+01	 9.324148e+00	
7.820000e+01	 9.339499e+00	
7.870000e+01	 9.354753e+00	
7.920000e+01	 9.369913e+00	
7.970000e+01	 9.384979e+00	
8.020000e+01	 9.399953e+00	
8.070000e+01	 9.414835e+00	
8.120000e+01	 9.429627e+00	
8.170000e+01	 9.444330e+00	
8.220000e+01	 9.458945e+00	
8.270000e+01	 9.473472e+00	
8.320000e+01	 9.487914e+00	
8.370000e+01	 9.502271e+00	
8.420000e+01	 9.516544e+00	
8.470000e+01	 9.530734e+00	
8.520000e+01	 9.544842e+00	
8.570000e+01	 9.558868e+00	
8.620000e+01	 9.572815e+00	
8.670000e+01	 9.586682e+00	
8.720000e+01	 9.600471e+00	
8.770000e+01	 9.614182e+00	
8.820000e+01	 9.627817e+00	
8.870000e+01	 9.641376e+00	
8.920000e+01	 9.654860e+00	
8.970000e+01	 9.668270e+00	
9.020000e+01	 9.681606e+00	
9.070000e+01	 9.694870e+00	
9.120000e+01	 9.708062e+00	
9.170000e+01	 9.721184e+00	
9.220000e+01	 9.734235e+00	
9.270000e+01	 9.747217e+00	
9.320000e+01	 9.760130e+00	
9.370000e+01	 9.772975e+00	
9.420000e+01	 9.785752e+00	
9.470000e+01	 9.798464e+00	
9.520000e+01	 9.811109e+00	
9.570000e+01	 9.823689e+00	
9.620000e+01	 9.836204e+00	
9.670000e+01	 9.848656e+00	
9.720000e+01	 9.861045e+00	
9.770000e+01	 9.873370e+00	
9.820000e+01	 9.885634e+00	
9.870000e+01	 9.897837e+00	
9.920000e+01	 9.909979e+00	
9.970000e+01	 9.922060e+00	
1.002000e+02	 9.934082e+00	
1.007000e+02	 9.946045e+00	
1.012000e+02	 9.957950e+00	
1.017000e+02	 9.969797e+00	
1.022000e+02	 9.981587e+00	
1.027000e+02	 9.993320e+00	
1.032000e+02	 1.000500e+01	
1.037000e+02	 1.001662e+01	
1.042000e+02	 1.002818e+01	
1.047000e+02	 1.003970e+01	
1.052000e+02	 1.005115e+01	
1.057000e+02	 1.006256e+01	
1.062000e+02	 1.007391e+01	
1.067000e+02	 1.008521e+01	
1.072000e+02	 1.009645e+01	
1.077000e+02	 1.010765e+01	
1.082000e+02	 1.011879e+01	
1.087000e+02	 1.012988e+01	
1.092000e+02	 1.014093e+01	
1.097000e+02	 1.015192e+01	
1.102000e+02	 1.016286e+01	
1.107000e+02	 1.017376e+01	
1.112000e+02	 1.018460e+01	
1.117000e+02	 1.019540e+01	
1.122000e+02	 1.020615e+01	
1.127000e+02	 1.021685e+01	
1.132000e+02	 1.022751e+01	
1.137000e+02	 1.023812e+01	
1.142000e+02	 1.024869e+01	
1.147000e+02	 1.025920e+01	
1.152000e+02	 1.026968e+01	
1.157000e+02	 1.028011e+01	
1.162000e+02	 1.029049e+01	
1.167000e+02	 1.030083e+01	
1.172000e+02	 1.031113e+01	
1.177000e+02	 1.032138e+01	
1.182000e+02	 1.033159e+01	
1.187000e+02	 1.034176e+01	
1.192000e+02	 1.035189e+01	
1.197000e+02	 1.036197e+01	
1.202000e+02	 1.037201e+01	
1.207000e+02	 1.038201e+01	
1.212000e+02	 1.039197e+01	
1.217000e+02	 1.040189e+01	
1.222000e+02	 1.041177e+01	
1.227000e+02	 1.042161e+01	
1.232000e+02	 1.043141e+01	
1.237000e+02	 1.044118e+01	
1.242000e+02	 1.045090e+01	
1.247000e+02	 1.046058e+01	
1.252000e+02	 1.047023e+01	
1.257000e+02	 1.047983e+01	
1.262000e+02	 1.048940e+01	
1.267000e+02	 1.049894e+01	
1.272000e+02	 1.050843e+01	
1.277000e+02	 1.051789e+01	
1.282000e+02	 1.052731e+01	
1.287000e+02	 1.053670e+01	
1.292000e+02	 1.054605e+01	
1.297000e+02	 1.055536e+01	
1.302000e+02	 1.056464e+01	
1.307000e+02	 1.057388e+01	
1.312000e+02	 1.058309e+01	
1.317000e+02	 1.059226e+01	
1.322000e+02	 1.060140e+01	
1.327000e+02	 1.061051e+01	
1.332000e+02	 1.061958e+01	
1.337000e+02	 1.062862e+01	
1.342000e+02	 1.063762e+01	
1.347000e+02	 1.064659e+01	
1.352000e+02	 1.065553e+01	
1.357000e+02	 1.066444e+01	
1.362000e+02	 1.067331e+01	
1.367000e+02	 1.068215e+01	
1.372000e+02	 1.069096e+01	
1.377000e+02	 1.069974e+01	
1.382000e+02	 1.070849e+01	
1.387000e+02	 1.071720e+01	
1.392000e+02	 1.072589e+01	
1.397000e+02	 1.073454e+01	
1.402000e+02	 1.074316e+01	
1.407000e+02	 1.075175e+01	
1.412000e+02	 1.076032e+01	
1.417000e+02	 1.076885e+01	
1.422000e+02	 1.077735e+01	
1.427000e+02	 1.078582e+01	
1.432000e+02	 1.079427e+01	
1.437000e+02	 1.080268e+01	
1.442000e+02	 1.081107e+01	
1.447000e+02	 1.081942e+01	
1.452000e+02	 1.082775e+01	
1.457000e+02	 1.083605e+01	
1.462000e+02	 1.084432e+01	
1.467000e+02	 1.085257e+01	
1.472000e+02	 1.086078e+01	
1.477000e+02	 1.086897e+01	
1.482000e+02	 1.087713e+01	
1.487000e+02	 1.088526e+01	
1.492000e+02	 1.089337e+01	
1.497000e+02	 1.090145e+01	
1.502000e+02	 1.090950e+01	
1.507000e+02	 1.091753e+01	
1.512000e+02	 1.092553e+01	
1.517000e+02	 1.093351e+01	
1.522000e+02	 1.094145e+01	
1.527000e+02	 1.094938e+01	
1.532000e+02	 1.095727e+01	
1.537000e+02	 1.096514e+01	
1.542000e+02	 1.097299e+01	
1.547000e+02	 1.098081e+01	
1.552000e+02	 1.098861e+01	
1.557000e+02	 1.099638e+01	
1.562000e+02	 1.100412e+01	
1.567000e+02	 1.101185e+01	
1.572000e+02	 1.101954e+01	
1.577000e+02	 1.102722e+01	
1.582000e+02	 1.103486e+01	
1.587000e+02	 1.104249e+01	
1.592000e+02	 1.105009e+01	
1.597000e+02	 1.105767e+01	
1.602000e+02	 1.106522e+01	
1.607000e+02	 1.107275e+01	
1.612000e+02	 1.108026e+01	
1.617000e+02	 1.108775e+01	
1.622000e+02	 1.109521e+01	
1.627000e+02	 1.110265e+01	
1.632000e+02	 1.111006e+01	
1.637000e+02	 1.111746e+01	
1.642000e+02	 1.112483e+01	
1.647000e+02	 1.113218e+01	
1.652000e+02	 1.113951e+01	
1.657000e+02	 1.114681e+01	
1.662000e+02	 1.115410e+01	
1.667000e+02	 1.116136e+01	
1.672000e+02	 1.116860e+01	
1.677000e+02	 1.117582e+01	
1.682000e+02	 1.118302e+01	
1.687000e+02	 1.119019e+01	
1.692000e+02	 1.119735e+01	
1.697000e+02	 1.120448e+01	
1.702000e+02	 1.121160e+01	
1.707000e+02	 1.121869e+01	
1.712000e+02	 1.122576e+01	
1.717000e+02	 1.123281e+01	
1.722000e+02	 1.123985e+01	
1.727000e+02	 1.124686e+01	
1.732000e+02	 1.125385e+01	
1.737000e+02	 1.126082e+01	
1.742000e+02	 1.126777e+01	
1.747000e+02	 1.127470e+01	
1.752000e+02	 1.128161e+01	
1.757000e+02	 1.128851e+01	
1.762000e+02	 1.129538e+01	
1.767000e+02	 1.130223e+01	
1.772000e+02	 1.130907e+01	
1.777000e+02	 1.131588e+01	
1.782000e+02	 1.132268e+01	
1.787000e+02	 1.132946e+01	
1.792000e+02	 1.133622e+01	
1.797000e+02	 1.134296e+01	
1.802000e+02	 1.134968e+01	
1.807000e+02	 1.135638e+01	
1.812000e+02	 1.136307e+01	
1.817000e+02	 1.136973e+01	
1.822000e+02	 1.137638e+01	
1.827000e+02	 1.138301e+01	
1.832000e+02	 1.138963e+01	
1.837000e+02	 1.139622e+01	
1.842000e+02	 1.140280e+01	
1.847000e+02	 1.140936e+01	
1.852000e+02	 1.141590e+01	
1.857000e+02	 1.142242e+01	
1.862000e+02	 1.142893e+01	
1.867000e+02	 1.143542e+01	
1.872000e+02	 1.144189e+01	
1.877000e+02	 1.144834e+01	
1.882000e+02	 1.145478e+01	
1.887000e+02	 1.146120e+01	
1.892000e+02	 1.146761e+01	
1.897000e+02	 1.147399e+01	
1.902000e+02	 1.148036e+01	
1.907000e+02	 1.148672e+01	
1.912000e+02	 1.149305e+01	
1.917000e+02	 1.149938e+01	
1.922000e+02	 1.150568e+01	
1.927000e+02	 1.151197e+01	
1.932000e+02	 1.151824e+01	
1.937000e+02	 1.152450e+01	
1.942000e+02	 1.153074e+01	
1.947000e+02	 1.153696e+01	
1.952000e+02	 1.154317e+01	
1.957000e+02	 1.154936e+01	
1.962000e+02	 1.155554e+01	
1.967000e+02	 1.156170e+01	
1.972000e+02	 1.156785e+01	
1.977000e+02	 1.157398e+01	
1.982000e+02	 1.158009e+01	
1.987000e+02	 1.158619e+01	
1.992000e+02	 1.159228e+01	
1.997000e+02	 1.159835e+01	
2.002000e+02	 1.160440e+01	
2.007000e+02	 1.161044e+01	
2.012000e+02	 1.161646e+01	
2.017000e+02	 1.162247e+01	
2.022000e+02	 1.162847e+01	
2.027000e+02	 1.163445e+01	
2.032000e+02	 1.164041e+01	
2.037000e+02	 1.164636e+01	
2.042000e+02	 1.165230e+01	
2.047000e+02	 1.165822e+01	
2.052000e+02	 1.166413e+01	
2.057000e+02	 1.167002e+01	
2.062000e+02	 1.167590e+01	
2.067000e+02	 1.168177e+01	
2.072000e+02	 1.168762e+01	
2.077000e+02	 1.169346e+01	
2.082000e+02	 1.169928e+01	
2.087000e+02	 1.170509e+01	
2.092000e+02	 1.171088e+01	
2.097000e+02	 1.171667e+01	
2.102000e+02	 1.172243e+01	
2.107000e+02	 1.172819e+01	
2.112000e+02	 1.173393e+01	
2.117000e+02	 1.173966e+01	
2.122000e+02	 1.174537e+01	
2.127000e+02	 1.175107e+01	
2.132000e+02	 1.175676e+01	
2.137000e+02	 1.176243e+01	
2.142000e+02	 1.176809e+01	
2.147000e+02	 1.177374e+01	
2.152000e+02	 1.177937e+01	
2.157000e+02	 1.178500e+01	
2.162000e+02	 1.179061e+01	
2.167000e+02	 1.179620e+01	
2.172000e+02	 1.180178e+01	
2.177000e+02	 1.180735e+01	
2.182000e+02	 1.181291e+01	
2.187000e+02	 1.181846e+01	
2.192000e+02	 1.182399e+01	
2.197000e+02	 1.182951e+01	
2.202000e+02	 1.183502e+01	
2.207000e+02	 1.184051e+01	
2.212000e+02	 1.184600e+01	
2.217000e+02	 1.185147e+01	
2.222000e+02	 1.185692e+01	
2.227000e+02	 1.186237e+01	
2.232000e+02	 1.186780e+01	
2.237000e+02	 1.187323e+01	
2.242000e+02	 1.187863e+01	
2.247000e+02	 1.188403e+01	
2.252000e+02	 1.188942e+01	
2.257000e+02	 1.189479e+01	
2.262000e+02	 1.190015e+01	
2.267000e+02	 1.190551e+01	
2.272000e+02	 1.191084e+01	
2.277000e+02	 1.191617e+01	
2.282000e+02	 1.192149e+01	
2.287000e+02	 1.192679e+01	
2.292000e+02	 1.193208e+01	
2.297000e+02	 1.193736e+01	
2.302000e+02	 1.194263e+01	
2.307000e+02	 1.194789e+01	
2.312000e+02	 1.195314e+01	
2.317000e+02	 1.195837e+01	
2.322000e+02	 1.196360e+01	
2.327000e+02	 1.196881e+01	
2.332000e+02	 1.197401e+01	
2.337000e+02	 1.197920e+01	
2.342000e+02	 1.198438e+01	
2.347000e+02	 1.198955e+01	
2.352000e+02	 1.199471e+01	
2.357000e+02	 1.199986e+01	
2.362000e+02	 1.200499e+01	
2.367000e+02	 1.201012e+01	
2.372000e+02	 1.201524e+01	
2.377000e+02	 1.202034e+01	
2.382000e+02	 1.202543e+01	
2.387000e+02	 1.203052e+01	
2.392000e+02	 1.203559e+01	
2.397000e+02	 1.204065e+01	
2.402000e+02	 1.204570e+01	
2.407000e+02	 1.205074e+01	
2.412000e+02	 1.205577e+01	
2.417000e+02	 1.206079e+01	
2.422000e+02	 1.206580e+01	
2.427000e+02	 1.207080e+01	
2.432000e+02	 1.207579e+01	
2.437000e+02	 1.208077e+01	
2.442000e+02	 1.208574e+01	
2.447000e+02	 1.209070e+01	
2.452000e+02	 1.209565e+01	
2.457000e+02	 1.210059e+01	
2.462000e+02	 1.210551e+01	
2.467000e+02	 1.211043e+01	
2.472000e+02	 1.211534e+01	
2.477000e+02	 1.212024e+01	
2.482000e+02	 1.212513e+01	
2.487000e+02	 1.213001e+01	
2.492000e+02	 1.213488e+01	
2.497000e+02	 1.213974e+01	
2.502000e+02	 1.214459e+01	
2.507000e+02	 1.214943e+01	
2.512000e+02	 1.215426e+01	
2.517000e+02	 1.215908e+01	
2.522000e+02	 1.216389e+01	
2.527000e+02	 1.216870e+01	
2.532000e+02	 1.217349e+01	
2.537000e+02	 1.217827e+01	
2.542000e+02	 1.218305e+01	
2.547000e+02	 1.218781e+01	
2.552000e+02	 1.219257e+01	
2.557000e+02	 1.219732e+01	
2.562000e+02	 1.220205e+01	
2.567000e+02	 1.220678e+01	
2.572000e+02	 1.221150e+01	
2.577000e+02	 1.221621e+01	
2.582000e+02	 1.222091e+01	
2.587000e+02	 1.222560e+01	
2.592000e+02	 1.223029e+01	
2.597000e+02	 1.223496e+01	
2.602000e+02	 1.223962e+01	
2.607000e+02	 1.224428e+01	
2.612000e+02	 1.224893e+01	
2.617000e+02	 1.225357e+01	
2.622000e+02	 1.225820e+01	
2.627000e+02	 1.226282e+01	
2.632000e+02	 1.226743e+01	
2.637000e+02	 1.227203e+01	
2.642000e+02	 1.227663e+01	
2.647000e+02	 1.228121e+01	
2.652000e+02	 1.228579e+01	
2.657000e+02	 1.229036e+01	
2.662000e+02	 1.229492e+01	
2.667000e+02	 1.229947e+01	
2.672000e+02	 1.230401e+01	
2.677000e+02	 1.230855e+01	
2.682000e+02	 1.231307e+01	
2.687000e+02	 1.231759e+01	
2.692000e+02	 1.232210e+01	
2.697000e+02	 1.232660e+01	
2.702000e+02	 1.233109e+01	
2.707000e+02	 1.233558e+01	
2.712000e+02	 1.234006e+01	
2.717000e+02	 1.234452e+01	
2.722000e+02	 1.234898e+01	
2.727000e+02	 1.235344e+01	
2.732000e+02	 1.235788e+01	
2.737000e+02	 1.236232e+01	
2.742000e+02	 1.236674e+01	
2.747000e+02	 1.237116e+01	
2.752000e+02	 1.237558e+01	
2.757000e+02	 1.237998e+01	
2.762000e+02	 1.238437e+01	
2.767000e+02	 1.238876e+01	
2.772000e+02	 1.239314e+01	
2.777000e+02	 1.239751e+01	
2.782000e+02	 1.240188e+01	
2.787000e+02	 1.240624e+01	
2.792000e+02	 1.241058e+01	
2.797000e+02	 1.241493e+01	
2.802000e+02	 1.241926e+01	
2.807000e+02	 1.242358e+01	
2.812000e+02	 1.242790e+01	
2.817000e+02	 1.243221e+01	
2.822000e+02	 1.243652e+01	
2.827000e+02	 1.244081e+01	
2.832000e+02	 1.244510e+01	
2.837000e+02	 1.244938e+01	
2.842000e+02	 1.245365e+01	
2.847000e+02	 1.245792e+01	
2.852000e+02	 1.246217e+01	
2.857000e+02	 1.246642e+01	
2.862000e+02	 1.247067e+01	
2.867000e+02	 1.247490e+01	
2.872000e+02	 1.247913e+01	
2.877000e+02	 1.248335e+01	
2.882000e+02	 1.248757e+01	
2.887000e+02	 1.249177e+01	
2.892000e+02	 1.249597e+01	
2.897000e+02	 1.250016e+01	
2.902000e+02	 1.250435e+01	
2.907000e+02	 1.250852e+01	
2.912000e+02	 1.251269e+01	
2.917000e+02	 1.251686e+01	
2.922000e+02	 1.252101e+01	
2.927000e+02	 1.252516e+01	
2.932000e+02	 1.252930e+01	
2.937000e+02	 1.253344e+01	
2.942000e+02	 1.253757e+01	
2.947000e+02	 1.254169e+01	
2.952000e+02	 1.254580e+01	
2.957000e+02	 1.254991e+01	
2.962000e+02	 1.255401e+01	
2.967000e+02	 1.255810e+01	
2.972000e+02	 1.256219e+01	
2.977000e+02	 1.256627e+01	
2.982000e+02	 1.257034e+01	
2.987000e+02	 1.257441e+01	
2.992000e+02	 1.257847e+01	
2.997000e+02	 1.258252e+01	
3.002000e+02	 1.258657e+01	
3.007000e+02	 1.259061e+01	
3.012000e+02	 1.259464e+01	
3.017000e+02	 1.259866e+01	
3.022000e+02	 1.260268e+01	
3.027000e+02	 1.260670e+01	
3.032000e+02	 1.261070e+01	
3.037000e+02	 1.261470e+01	
3.042000e+02	 1.261869e+01	
3.047000e+02	 1.262268e+01	
3.052000e+02	 1.262666e+01	
3.057000e+02	 1.263063e+01	
3.062000e+02	 1.263460e+01	
3.067000e+02	 1.263856e+01	
3.072000e+02	 1.264251e+01	
3.077000e+02	 1.264646e+01	
3.082000e+02	 1.265040e+01	
3.087000e+02	 1.265434e+01	
3.092000e+02	 1.265827e+01	
3.097000e+02	 1.266219e+01	
3.102000e+02	 1.266610e+01	
3.107000e+02	 1.267001e+01	
3.112000e+02	 1.267392e+01	
3.117000e+02	 1.267781e+01	
3.122000e+02	 1.268171e+01	
3.127000e+02	 1.268559e+01	
3.132000e+02	 1.268947e+01	
3.137000e+02	 1.269334e+01	
3.142000e+02	 1.269721e+01	
3.147000e+02	 1.270107e+01	
3.152000e+02	 1.270492e+01	
3.157000e+02	 1.270877e+01	
3.162000e+02	 1.271261e+01	
3.167000e+02	 1.271645e+01	
3.172000e+02	 1.272028e+01	
3.177000e+02	 1.272410e+01	
3.182000e+02	 1.272792e+01	
3.187000e+02	 1.273173e+01	
3.192000e+02	 1.273554e+01	
3.197000e+02	 1.273934e+01	
3.202000e+02	 1.274313e+01	
3.207000e+02	 1.274692e+01	
3.212000e+02	 1.275070e+01	
3.217000e+02	 1.275448e+01	
3.222000e+02	 1.275825e+01	
3.227000e+02	 1.276201e+01	
3.232000e+02	 1.276577e+01	
3.237000e+02	 1.276952e+01	
3.242000e+02	 1.277327e+01	
3.247000e+02	 1.277701e+01	
3.252000e+02	 1.278075e+01	
3.257000e+02	 1.278448e+01	
3.262000e+02	 1.278820e+01	
3.267000e+02	 1.279192e+01	
3.272000e+02	 1.279564e+01	
3.277000e+02	 1.279934e+01	
3.282000e+02	 1.280305e+01	
3.287000e+02	 1.280674e+01	
3.292000e+02	 1.281043e+01	
3.297000e+02	 1.281412e+01	
3.302000e+02	 1.281780e+01	
3.307000e+02	 1.282147e+01	
3.312000e+02	 1.282514e+01	
3.317000e+02	 1.282880e+01	
3.322000e+02	 1.283246e+01	
3.327000e+02	 1.283611e+01	
3.332000e+02	 1.283976e+01	
3.337000e+02	 1.284340e+01	
3.342000e+02	 1.284704e+01	
3.347000e+02	 1.285067e+01	
3.352000e+02	 1.285429e+01	
3.357000e+02	 1.285791e+01	
3.362000e+02	 1.286153e+01	
3.367000e+02	 1.286513e+01	
3.372000e+02	 1.286874e+01	
3.377000e+02	 1.287234e+01	
3.382000e+02	 1.287593e+01	
3.387000e+02	 1.287952e+01	
3.392000e+02	 1.288310e+01	
3.397000e+02	 1.288668e+01	
3.402000e+02	 1.289025e+01	
3.407000e+02	 1.289381e+01	
3.412000e+02	 1.289738e+01	
3.417000e+02	 1.290093e+01	
3.422000e+02	 1.290448e+01	
3.427000e+02	 1.290803e+01	
3.432000e+02	 1.291157e+01	
3.437000e+02	 1.291511e+01	
3.442000e+02	 1.291864e+01	
3.447000e+02	 1.292216e+01	
3.452000e+02	 1.292568e+01	
3.457000e+02	 1.292920e+01	
3.462000e+02	 1.293271e+01	
3.467000e+02	 1.293621e+01	
3.472000e+02	 1.293971e+01	
3.477000e+02	 1.294321e+01	
3.482000e+02	 1.294670e+01	
3.487000e+02	 1.295018e+01	
3.492000e+02	 1.295366e+01	
3.497000e+02	 1.295714e+01	
3.502000e+02	 1.296061e+01	
3.507000e+02	 1.296407e+01	
3.512000e+02	 1.296753e+01	
3.517000e+02	 1.297099e+01	
3.522000e+02	 1.297444e+01	
3.527000e+02	 1.297788e+01	
3.532000e+02	 1.298133e+01	
3.537000e+02	 1.298476e+01	
3.542000e+02	 1.298819e+01	
3.547000e+02	 1.299162e+01	
3.552000e+02	 1.299504e+01	
3.557000e+02	 1.299846e+01	
3.562000e+02	 1.300187e+01	
3.567000e+02	 1.300528e+01	
3.572000e+02	 1.300868e+01	
3.577000e+02	 1.301208e+01	
3.582000e+02	 1.301547e+01	
3.587000e+02	 1.301886e+01	
3.592000e+02	 1.302224e+01	
3.597000e+02	 1.302562e+01	
3.602000e+02	 1.302899e+01	
3.607000e+02	 1.303236e+01	
3.612000e+02	 1.303573e+01	
3.617000e+02	 1.303909e+01	
3.622000e+02	 1.304244e+01	
3.627000e+02	 1.304580e+01	
3.632000e+02	 1.304914e+01	
3.637000e+02	 1.305248e+01	
3.642000e+02	 1.305582e+01	
3.647000e+02	 1.305915e+01	
3.652000e+02	 1.306248e+01	
3.657000e+02	 1.306581e+01	
3.662000e+02	 1.306912e+01	
3.667000e+02	 1.307244e+01	
3.672000e+02	 1.307575e+01	
3.677000e+02	 1.307905e+01	
3.682000e+02	 1.308236e+01	
3.687000e+02	 1.308565e+01	
3.692000e+02	 1.308894e+01	
3.697000e+02	 1.309223e+01	
3.702000e+02	 1.309552e+01	
3.707000e+02	 1.309879e+01	
3.712000e+02	 1.310207e+01	
3.717000e+02	 1.310534e+01	
3.722000e+02	 1.310860e+01	
3.727000e+02	 1.311187e+01	
3.732000e+02	 1.311512e+01	
3.737000e+02	 1.311838e+01	
3.742000e+02	 1.312162e+01	
3.747000e+02	 1.312487e+01	
3.752000e+02	 1.312811e+01	
3.757000e+02	 1.313134e+01	
3.762000e+02	 1.313457e+01	
3.767000e+02	 1.313780e+01	
3.772000e+02	 1.314102e+01	
3.777000e+02	 1.314424e+01	
3.782000e+02	 1.314746e+01	
3.787000e+02	 1.315067e+01	
3.792000e+02	 1.315387e+01	
3.797000e+02	 1.315707e+01	
3.802000e+02	 1.316027e+01	
3.807000e+02	 1.316346e+01	
3.812000e+02	 1.316665e+01	
3.817000e+02	 1.316984e+01	
3.822000e+02	 1.317302e+01	
3.827000e+02	 1.317619e+01	
3.832000e+02	 1.317937e+01	
3.837000e+02	 1.318253e+01	
3.842000e+02	 1.318570e+01	
3.847000e+02	 1.318886e+01	
3.852000e+02	 1.319201e+01	
3.857000e+02	 1.319517e+01	
3.862000e+02	 1.319831e+01	
3.867000e+02	 1.320146e+01	
3.872000e+02	 1.320460e+01	
3.877000e+02	 1.320773e+01	
3.882000e+02	 1.321086e+01	
3.887000e+02	 1.321399e+01	
3.892000e+02	 1.321712e+01	
3.897000e+02	 1.322024e+01	
3.902000e+02	 1.322335e+01	
3.907000e+02	 1.322646e+01	
3.912000e+02	 1.322957e+01	
3.917000e+02	 1.323267e+01	
3.922000e+02	 1.323577e+01	
3.927000e+02	 1.323887e+01	
3.932000e+02	 1.324196e+01	
3.937000e+02	 1.324505e+01	
3.942000e+02	 1.324813e+01	
3.947000e+02	 1.325121e+01	
3.952000e+02	 1.325429e+01	
3.957000e+02	 1.325736e+01	
3.962000e+02	 1.326043e+01	
3.967000e+02	 1.326350e+01	
3.972000e+02	 1.326656e+01	
3.977000e+02	 1.326961e+01	
3.982000e+02	 1.327267e+01	
3.987000e+02	 1.327572e+01	
3.992000e+02	 1.327876e+01	
3.997000e+02	 1.328180e+01	
4.002000e+02	 1.328484e+01	
4.007000e+02	 1.328788e+01	
4.012000e+02	 1.329091e+01	
4.017000e+02	 1.329393e+01	
4.022000e+02	 1.329696e+01	
4.027000e+02	 1.329997e+01	
4.032000e+02	 1.330299e+01	
4.037000e+02	 1.330600e+01	
4.042000e+02	 1.330901e+01	
4.047000e+02	 1.331201e+01	
4.052000e+02	 1.331501e+01	
4.057000e+02	 1.331801e+01	
4.062000e+02	 1.332100e+01	
4.067000e+02	 1.332399e+01	
4.072000e+02	 1.332698e+01	
4.077000e+02	 1.332996e+01	
4.082000e+02	 1.333294e+01	
4.087000e+02	 1.333592e+01	
4.092000e+02	 1.333889e+01	
4.097000e+02	 1.334186e+01	
4.102000e+02	 1.334482e+01	
4.107000e+02	 1.334778e+01	
4.112000e+02	 1.335074e+01	
4.117000e+02	 1.335369e+01	
4.122000e+02	 1.335664e+01	
4.127000e+02	 1.335959e+01	
4.132000e+02	 1.336253e+01	
4.137000e+02	 1.336547e+01	
4.142000e+02	 1.336840e+01	
4.147000e+02	 1.337134e+01	
4.152000e+02	 1.337426e+01	
4.157000e+02	 1.337719e+01	
4.162000e+02	 1.338011e+01	
4.167000e+02	 1.338303e+01	
4.172000e+02	 1.338594e+01	
4.177000e+02	 1.338885e+01	
4.182000e+02	 1.339176e+01	
4.187000e+02	 1.339467e+01	
4.192000e+02	 1.339757e+01	
4.197000e+02	 1.340046e+01	
4.202000e+02	 1.340336e+01	
4.207000e+02	 1.340625e+01	
4.212000e+02	 1.340913e+01	
4.217000e+02	 1.341202e+01	
4.222000e+02	 1.341490e+01	
4.227000e+02	 1.341778e+01	
4.232000e+02	 1.342065e+01	
4.237000e+02	 1.342352e+01	
4.242000e+02	 1.342638e+01	
4.247000e+02	 1.342925e+01	
4.252000e+02	 1.343211e+01	
4.257000e+02	 1.343496e+01	
4.262000e+02	 1.343782e+01	
4.267000e+02	 1.344067e+01	
4.272000e+02	 1.344351e+01	
4.277000e+02	 1.344636e+01	
4.282000e+02	 1.344920e+01	
4.287000e+02	 1.345203e+01	
4.292000e+02	 1.345487e+01	
4.297000e+02	 1.345770e+01	
4.302000e+02	 1.346052e+01	
4.307000e+02	 1.346335e+01	
4.312000e+02	 1.346617e+01	
4.317000e+02	 1.346898e+01	
4.322000e+02	 1.347180e+01	
4.327000e+02	 1.347461e+01	
4.332000e+02	 1.347742e+01	
4.337000e+02	 1.348022e+01	
4.342000e+02	 1.348302e+01	
4.347000e+02	 1.348582e+01	
4.352000e+02	 1.348861e+01	
4.357000e+02	 1.349140e+01	
4.362000e+02	 1.349419e+01	
4.367000e+02	 1.349698e+01	
4.372000e+02	 1.349976e+01	
4.377000e+02	 1.350254e+01	
4.382000e+02	 1.350531e+01	
4.387000e+02	 1.350808e+01	
4.392000e+02	 1.351085e+01	
4.397000e+02	 1.351362e+01	
4.402000e+02	 1.351638e+01	
4.407000e+02	 1.351914e+01	
4.412000e+02	 1.352190e+01	
4.417000e+02	 1.352465e+01	
4.422000e+02	 1.352740e+01	
4.427000e+02	 1.353015e+01	
4.432000e+02	 1.353289e+01	
4.437000e+02	 1.353563e+01	
4.442000e+02	 1.353837e+01	
4.447000e+02	 1.354110e+01	
4.452000e+02	 1.354384e+01	
4.457000e+02	 1.354657e+01	
4.462000e+02	 1.354929e+01	
4.467000e+02	 1.355201e+01	
4.472000e+02	 1.355473e+01	
4.477000e+02	 1.355745e+01	
4.482000e+02	 1.356016e+01	
4.487000e+02	 1.356287e+01	
4.492000e+02	 1.356558e+01	
4.497000e+02	 1.356829e+01	
4.502000e+02	 1.357099e+01	
4.507000e+02	 1.357369e+01	
4.512000e+02	 1.357638e+01	
4.517000e+02	 1.357907e+01	
4.522000e+02	 1.358176e+01	
4.527000e+02	 1.358445e+01	
4.532000e+02	 1.358713e+01	
4.537000e+02	 1.358981e+01	
4.542000e+02	 1.359249e+01	
4.547000e+02	 1.359517e+01	
4.552000e+02	 1.359784e+01	
4.557000e+02	 1.360051e+01	
4.562000e+02	 1.360317e+01	
4.567000e+02	 1.360584e+01	
4.572000e+02	 1.360850e+01	
4.577000e+02	 1.361115e+01	
4.582000e+02	 1.361381e+01	
4.587000e+02	 1.361646e+01	
4.592000e+02	 1.361911e+01	
4.597000e+02	 1.362175e+01	
4.602000e+02	 1.362440e+01	
4.607000e+02	 1.362704e+01	
4.612000e+02	 1.362967e+01	
4.617000e+02	 1.363231e+01	
4.622000e+02	 1.363494e+01	
4.627000e+02	 1.363757e+01	
4.632000e+02	 1.364020e+01	
4.637000e+02	 1.364282e+01	
4.642000e+02	 1.364544e+01	
4.647000e+02	 1.364806e+01	
4.652000e+02	 1.365067e+01	
4.657000e+02	 1.365328e+01	
4.662000e+02	 1.365589e+01	
4.667000e+02	 1.365850e+01	
4.672000e+02	 1.366110e+01	
4.677000e+02	 1.366370e+01	
4.682000e+02	 1.366630e+01	
4.687000e+02	 1.366889e+01	
4.692000e+02	 1.367149e+01	
4.697000e+02	 1.367408e+01	
4.702000e+02	 1.367666e+01	
4.707000e+02	 1.367925e+01	
4.712000e+02	 1.368183e+01	
4.717000e+02	 1.368441e+01	
4.722000e+02	 1.368698e+01	
4.727000e+02	 1.368956e+01	
4.732000e+02	 1.369213e+01	
4.737000e+02	 1.369470e+01	
4.742000e+02	 1.369726e+01	
4.747000e+02	 1.369982e+01	
4.752000e+02	 1.370238e+01	
4.757000e+02	 1.370494e+01	
4.762000e+02	 1.370749e+01	
4.767000e+02	 1.371005e+01	
4.772000e+02	 1.371259e+01	
4.777000e+02	 1.371514e+01	
4.782000e+02	 1.371768e+01	
4.787000e+02	 1.372023e+01	
4.792000e+02	 1.372276e+01	
4.797000e+02	 1.372530e+01	
4.802000e+02	 1.372783e+01	
4.807000e+02	 1.373036e+01	
4.812000e+02	 1.373289e+01	
4.817000e+02	 1.373542e+01	
4.822000e+02	 1.373794e+01	
4.827000e+02	 1.374046e+01	
4.832000e+02	 1.374298e+01	
4.837000e+02	 1.374549e+01	
4.842000e+02	 1.374800e+01	
4.847000e+02	 1.375051e+01	
4.852000e+02	 1.375302e+01	
4.857000e+02	 1.375553e+01	
4.862000e+02	 1.375803e+01	
4.867000e+02	 1.376053e+01	
4.872000e+02	 1.376302e+01	
4.877000e+02	 1.376552e+01	
4.882000e+02	 1.376801e+01	
4.887000e+02	 1.377050e+01	
4.892000e+02	 1.377299e+01	
4.897000e+02	 1.377547e+01	
4.902000e+02	 1.377795e+01	
4.907000e+02	 1.378043e+01	
4.912000e+02	 1.378291e+01	
4.917000e+02	 1.378538e+01	
4.922000e+02	 1.378785e+01	
4.927000e+02	 1.379032e+01	
4.932000e+02	 1.379279e+01	
4.937000e+02	 1.379525e+01	
4.942000e+02	 1.379771e+01	
4.947000e+02	 1.380017e+01	
4.952000e+02	 1.380263e+01	
4.957000e+02	 1.380508e+01	
4.962000e+02	 1.380753e+01	
4.967000e+02	 1.380998e+01	
4.972000e+02	 1.381243e+01	
4.977000e+02	 1.381488e+01	
4.982000e+02	 1.381732e+01	
4.987000e+02	 1.381976e+01	
4.992000e+02	 1.382219e+01	
4.997000e+02	 1.382422e+01	
